
read_data	InputFiles/216.lmpsys
  orthogonal box = (0 0 0) to (30 30 30)
  1 by 1 by 2 MPI processor grid
  reading atoms ...
  216 atoms
  0 = max # of 1-2 neighbors
  0 = max # of 1-3 neighbors
  0 = max # of 1-4 neighbors
  1 = max # of special neighbors

pair_style	lj/cut 10.0
pair_coeff   	1 1 0.4 3.4

timestep	1.0
neighbor	2.0 bin
neigh_modify	every 10 delay 0 check yes

minimize 	1.0e-4 1.0e-6 1000 10000
WARNING: Resetting reneighboring criteria during minimization (../min.cpp:168)
Neighbor list info ...
  1 neighbor list requests
  update every 1 steps, delay 0 steps, check yes
  master list distance cutoff = 12
Memory usage per processor = 6.62804 Mbytes
Step Temp E_pair E_mol TotEng Press 
       0            0    28459.493            0    28459.493       325123 
      34            0   -348.98809            0   -348.98809    -11.47388 

Loop time of 0.0145788 on 2 procs for 34 steps with 216 atoms
102.9% CPU use with 2 MPI tasks x 1 OpenMP threads

Minimization stats:
  Stopping criterion = energy tolerance
  Energy initial, next-to-last, final = 
         28459.4932699     -348.977271854     -348.988093176
  Force two-norm initial, final = 4186.89 0.426422
  Force max component initial, final = 285.223 0.0370118
  Final line search alpha, max atom move = 1 0.0370118
  Iterations, force evaluations = 34 38

MPI task timings breakdown:
Section |  min time  |  avg time  |  max time  |%varavg| %total
---------------------------------------------------------------
Pair    | 0.002527   | 0.0068063  | 0.011086   |   5.2 | 46.69
Bond    | 1.9073e-06 | 2.0266e-06 | 2.1458e-06 |   0.0 |  0.01
Neigh   | 0.00067592 | 0.0011094  | 0.0015428  |   1.3 |  7.61
Comm    | 0.0012791  | 0.0059315  | 0.010584   |   6.0 | 40.69
Output  | 0          | 0          | 0          |   0.0 |  0.00
Modify  | 0          | 0          | 0          |   0.0 |  0.00
Other   |            | 0.0007297  |            |       |  5.01

Nlocal:    108 ave 144 max 72 min
Histogram: 1 0 0 0 0 0 0 0 0 1
Nghost:    717 ave 918 max 516 min
Histogram: 1 0 0 0 0 0 0 0 0 1
Neighs:    4030 ave 5952 max 2108 min
Histogram: 1 0 0 0 0 0 0 0 0 1

Total # of neighbors = 8060
Ave neighs/atom = 37.3148
Ave special neighs/atom = 0
Neighbor list builds = 5
Dangerous builds = 0

variable        seed equal 12345*${irun}
variable        seed equal 12345*1
velocity        all create 298.0 ${seed}
velocity        all create 298.0 12345

fix 		fxnvt all nvt temp 300.0 300.0 100.0

thermo_style    custom step temp pe ke etotal press
thermo          1000

run 		50000
Neighbor list info ...
  1 neighbor list requests
  update every 10 steps, delay 0 steps, check yes
  master list distance cutoff = 12
Memory usage per processor = 5.50304 Mbytes
Step Temp PotEng KinEng TotEng Press 
      34          298   -348.98809     190.9805   -158.00759    311.86514 
    1000    328.03116   -194.61695    210.22669    15.609748    46.590035 
    2000     316.0674   -183.30181    202.55943     19.25762    261.21435 
    3000    321.85953   -181.11213    206.27146    25.159324    225.38666 
    4000    305.99852   -179.73463    196.10655    16.371919    180.81893 
    5000    293.27049   -179.37943    187.94948    8.5700505    223.02918 
    6000    276.97764   -177.90995    177.50781  -0.40214007    111.61854 
    7000    293.84917   -179.15599    188.32034    9.1643522    230.02647 
    8000    326.41701    -180.5471    209.19223    28.645129    184.43534 
    9000     289.3749   -184.95966     185.4529   0.49323922    102.72296 
   10000    318.88361   -179.53346    204.36427    24.830807    132.25972 
   11000    313.87166   -171.91268    201.15223    29.239549    203.19412 
   12000    342.98636   -180.63972    219.81109    39.171373    210.91514 
   13000    303.22646   -185.96305       194.33    8.3669478    161.78725 
   14000    291.75598   -182.18831    186.97887    4.7905595    131.24189 
   15000    285.46879   -187.22707    182.94957   -4.2774987    134.96581 
   16000    281.02504   -178.17194    180.10168    1.9297458     101.9656 
   17000    285.94583   -161.68905    183.25529    21.566242    310.70085 
   18000     327.5349   -172.61236    209.90866    37.296293    239.23276 
   19000    288.00846   -181.47446    184.57718    3.1027258     294.3979 
   20000    298.32612   -173.28791     191.1895    17.901595    179.12132 
   21000    315.17321   -178.72938    201.98637    23.256988    202.25913 
   22000    293.30052   -191.05317    187.96873   -3.0844447    183.37619 
   23000    267.31435   -185.73967    171.31486   -14.424815     172.7318 
   24000     301.4794   -182.79405    193.21036    10.416312    203.20824 
   25000     308.1639   -192.75681    197.49428    4.7374673    131.50908 
   26000     296.8767   -180.59355    190.26061    9.6670571    198.54869 
   27000    298.15372   -172.80819    191.07901    18.270819    236.04728 
   28000    301.76582   -180.54517    193.39392    12.848749    255.97262 
   29000    285.18071    -174.6793    182.76495    8.0856448    263.70699 
   30000    281.45038   -171.62002    180.37428    8.7542598    117.87851 
   31000     295.0278   -171.79027    189.07569    17.285418    105.11425 
   32000    278.87679   -175.21317    178.72493    3.5117581    150.29432 
   33000     297.0861   -183.01204    190.39481     7.382761    190.27199 
   34000     303.6413   -192.72859    194.59587    1.8672779    218.77023 
   35000    297.36223   -172.57031    190.57177     18.00146    296.79047 
   36000    296.16074   -170.51516    189.80177    19.286604    292.20868 
   37000    278.61064   -181.82446    178.55436   -3.2701025    261.08598 
   38000    279.90697   -181.70166    179.38515   -2.3165145    188.75373 
   39000    289.26882    -180.9498    185.38491    4.4351142    89.825583 
   40000    305.56614   -178.82221    195.82944    17.007231    210.83967 
   41000    291.66942   -174.17696    186.92339    12.746435    271.91877 
   42000    297.28065    -167.8668    190.51949    22.652685    363.09769 
   43000    310.62576   -175.55357    199.07202    23.518452    176.89318 
   44000    274.24769   -181.45378    175.75826   -5.6955257    280.97729 
   45000    276.02039   -182.01379    176.89433   -5.1194559    204.31586 
   46000    323.98645   -179.92314    207.63454    27.711398    166.75537 
   47000     305.9765   -176.85527    196.09243    19.237164    111.21203 
   48000    296.09578   -174.82294    189.76014    14.937194    172.35916 
   49000    309.98754   -175.29299      198.663    23.370015    203.25172 
   50000    305.32256   -175.26744    195.67334    20.405893    206.99829 
   50034    311.73673   -177.25605    199.78401    22.527968     191.0814 

Loop time of 5.02075 on 2 procs for 50000 steps with 216 atoms
99.9% CPU use with 2 MPI tasks x 1 OpenMP threads
Performance: 860.430 ns/day  0.028 hours/ns  9958.678 timesteps/s

MPI task timings breakdown:
Section |  min time  |  avg time  |  max time  |%varavg| %total
---------------------------------------------------------------
Pair    | 2.9832     | 3.1265     | 3.2697     |   8.1 | 62.27
Bond    | 0.0039375  | 0.0039761  | 0.0040147  |   0.1 |  0.08
Neigh   | 0.16519    | 0.16704    | 0.16889    |   0.5 |  3.33
Comm    | 1.2173     | 1.3587     | 1.5001     |  12.1 | 27.06
Output  | 0.0011346  | 0.0014583  | 0.0017819  |   0.8 |  0.03
Modify  | 0.28489    | 0.28819    | 0.2915     |   0.6 |  5.74
Other   |            | 0.07494    |            |       |  1.49

Nlocal:    108 ave 117 max 99 min
Histogram: 1 0 0 0 0 0 0 0 0 1
Nghost:    790.5 ave 829 max 752 min
Histogram: 1 0 0 0 0 0 0 0 0 1
Neighs:    3143.5 ave 3304 max 2983 min
Histogram: 1 0 0 0 0 0 0 0 0 1

Total # of neighbors = 6287
Ave neighs/atom = 29.1065
Ave special neighs/atom = 0
Neighbor list builds = 678
Dangerous builds = 0
dump            dmpall	all dcd	10000 OutputFiles/${irun}.dcd
dump            dmpall	all dcd	10000 OutputFiles/1.dcd
run 		50000
Memory usage per processor = 5.52078 Mbytes
Step Temp PotEng KinEng TotEng Press 
   50034    311.73673   -177.25605    199.78401    22.527968     191.0814 
   51000    311.00093    -176.5214    199.31246    22.791063    245.22627 
   52000    306.57314   -161.67069     196.4748    34.804111     300.9267 
   53000     296.1227   -172.78815    189.77739    16.989241    281.61352 
   54000    292.91342   -177.18197    187.72064    10.538672    200.34572 
   55000    280.98145   -179.59616    180.07375   0.47758986    211.96315 
   56000    264.47439   -181.71174     169.4948   -12.216936    88.901725 
   57000    291.96837   -170.40108    187.11498     16.71391    197.20158 
   58000    295.98503    -175.2064    189.68916    14.482756    263.29872 
   59000    316.74602   -181.98272    202.99434    21.011625    242.48952 
   60000    315.13292   -182.00657    201.96054     19.95397    150.68878 
   61000    286.85317    -179.4006    183.83678    4.4361833    289.05352 
   62000    286.10216   -179.08389    183.35548    4.2715884    158.81038 
   63000    313.64002   -176.10918    201.00379    24.894609    138.11087 
   64000    305.65354   -177.78498    195.88546    18.100474    277.84595 
   65000    312.61124   -174.53624    200.34447    25.808223    310.96608 
   66000    296.03408   -179.68595    189.72059    10.034647    15.491573 
   67000     287.5319   -180.19387    184.27176    4.0778943    80.415244 
   68000    294.26032   -177.72983    188.58384     10.85401    165.75601 
   69000    282.03601   -186.68521    180.74959   -5.9356224    241.48243 
   70000    283.59141   -185.99552    181.74641    -4.249119    163.77787 
   71000    319.36855   -178.69069    204.67505    25.984358    161.15291 
   72000    282.01375   -166.88537    180.73532    13.849957    318.60401 
   73000    293.18036   -178.57718    187.89172    9.3145357    114.12879 
   74000    269.75789   -168.50625    172.88086    4.3746078    222.80225 
   75000    293.64424    -181.5784      188.189    6.6106073    192.88108 
   76000    315.13258   -178.07005    201.96033    23.890274    150.03232 
   77000    327.89446     -175.821    210.13909    34.318089    266.30417 
   78000    286.07104   -173.29382    183.33554    10.041714    183.19538 
   79000    297.79722   -178.26136    190.85054     12.58918    189.31738 
   80000    294.28063   -184.96241    188.59685    3.6344433    179.49305 
   81000     292.7424   -179.11888    187.61104    8.4921636    105.03728 
   82000    297.42241   -180.38335    190.61034    10.226993    264.74696 
   83000    312.07932   -181.14159    200.00357    18.861977    190.05679 
   84000    309.84923   -177.60422    198.57436     20.97014    212.94519 
   85000    278.87697   -176.60918    178.72504     2.115862    235.96386 
   86000    303.68573   -187.44996    194.62434    7.1743819    147.62399 
   87000    266.49257   -178.41713     170.7882   -7.6289268    126.79099 
   88000    302.05703   -169.93444    193.58055    23.646109    168.80146 
   89000    261.31772   -167.03975    167.47177   0.43202517    255.47687 
   90000     281.2512   -174.27696    180.24663    5.9696686    77.927662 
   91000    291.68201   -176.31212    186.93146    10.619341    142.29764 
   92000    275.65186   -181.08276    176.65815   -4.4246013    117.31269 
   93000    301.34442   -176.54988    193.12385    16.573974    119.54606 
   94000    300.35655   -174.24642    192.49075    18.244335    263.11732 
   95000    270.41797   -172.79781    173.30389      0.50608    211.93395 
   96000    275.10304   -178.71831    176.30643   -2.4118844    106.80388 
   97000    304.24112    -172.9876    194.98027    21.992675    153.10066 
   98000    342.89332   -175.64061    219.75147    44.110859    325.27207 
   99000    302.73026   -179.74297      194.012    14.269039    218.47022 
  100000    284.04691   -177.74096    182.03833    4.2973627    169.22402 
  100034    284.44628   -177.18004    182.29427    5.1142297    167.13907 

Loop time of 5.08095 on 2 procs for 50000 steps with 216 atoms
99.8% CPU use with 2 MPI tasks x 1 OpenMP threads
Performance: 850.235 ns/day  0.028 hours/ns  9840.688 timesteps/s

MPI task timings breakdown:
Section |  min time  |  avg time  |  max time  |%varavg| %total
---------------------------------------------------------------
Pair    | 2.8216     | 3.1208     | 3.4199     |  16.9 | 61.42
Bond    | 0.0038838  | 0.0039473  | 0.0040107  |   0.1 |  0.08
Neigh   | 0.15869    | 0.16818    | 0.17766    |   2.3 |  3.31
Comm    | 1.1041     | 1.4164     | 1.7287     |  26.2 | 27.88
Output  | 0.0016766  | 0.0019729  | 0.0022693  |   0.7 |  0.04
Modify  | 0.28902    | 0.29381    | 0.2986     |   0.9 |  5.78
Other   |            | 0.07586    |            |       |  1.49

Nlocal:    108 ave 109 max 107 min
Histogram: 1 0 0 0 0 0 0 0 0 1
Nghost:    766.5 ave 778 max 755 min
Histogram: 1 0 0 0 0 0 0 0 0 1
Neighs:    3110.5 ave 3197 max 3024 min
Histogram: 1 0 0 0 0 0 0 0 0 1

Total # of neighbors = 6221
Ave neighs/atom = 28.8009
Ave special neighs/atom = 0
Neighbor list builds = 679
Dangerous builds = 0







