LAMMPS data file. CGCMM style. atom_style full generated by VMD/TopoTools v1.2 on Mon Jan 05 16:24:03 AEDT 2015
 216 atoms
 0 bonds
 0 angles
 0 dihedrals
 0 impropers
 1 atom types
 0 bond types
 0 angle types
 0 dihedral types
 0 improper types

0.0 30.0 xlo xhi
0.0 30.0 ylo yhi
0.0 30.0 zlo zhi


# Pair Coeffs
#
# 1  O

 Masses

 1 15.999400 # O

 Atoms

1 1 1 0.000000 0.816000 0.000000 0.000000 # O WAT
2 2 1 0.000000 0.816000 0.000000 2.500000 # O WAT
3 3 1 0.000000 0.816000 0.000000 5.000000 # O WAT
4 4 1 0.000000 0.816000 0.000000 7.500000 # O WAT
5 5 1 0.000000 0.816000 0.000000 10.000000 # O WAT
6 6 1 0.000000 0.816000 0.000000 12.500000 # O WAT
7 7 1 0.000000 0.816000 2.500000 0.000000 # O WAT
8 8 1 0.000000 0.816000 2.500000 2.500000 # O WAT
9 9 1 0.000000 0.816000 2.500000 5.000000 # O WAT
10 10 1 0.000000 0.816000 2.500000 7.500000 # O WAT
11 11 1 0.000000 0.816000 2.500000 10.000000 # O WAT
12 12 1 0.000000 0.816000 2.500000 12.500000 # O WAT
13 13 1 0.000000 0.816000 5.000000 0.000000 # O WAT
14 14 1 0.000000 0.816000 5.000000 2.500000 # O WAT
15 15 1 0.000000 0.816000 5.000000 5.000000 # O WAT
16 16 1 0.000000 0.816000 5.000000 7.500000 # O WAT
17 17 1 0.000000 0.816000 5.000000 10.000000 # O WAT
18 18 1 0.000000 0.816000 5.000000 12.500000 # O WAT
19 19 1 0.000000 0.816000 7.500000 0.000000 # O WAT
20 20 1 0.000000 0.816000 7.500000 2.500000 # O WAT
21 21 1 0.000000 0.816000 7.500000 5.000000 # O WAT
22 22 1 0.000000 0.816000 7.500000 7.500000 # O WAT
23 23 1 0.000000 0.816000 7.500000 10.000000 # O WAT
24 24 1 0.000000 0.816000 7.500000 12.500000 # O WAT
25 25 1 0.000000 0.816000 10.000000 0.000000 # O WAT
26 26 1 0.000000 0.816000 10.000000 2.500000 # O WAT
27 27 1 0.000000 0.816000 10.000000 5.000000 # O WAT
28 28 1 0.000000 0.816000 10.000000 7.500000 # O WAT
29 29 1 0.000000 0.816000 10.000000 10.000000 # O WAT
30 30 1 0.000000 0.816000 10.000000 12.500000 # O WAT
31 31 1 0.000000 0.816000 12.500000 0.000000 # O WAT
32 32 1 0.000000 0.816000 12.500000 2.500000 # O WAT
33 33 1 0.000000 0.816000 12.500000 5.000000 # O WAT
34 34 1 0.000000 0.816000 12.500000 7.500000 # O WAT
35 35 1 0.000000 0.816000 12.500000 10.000000 # O WAT
36 36 1 0.000000 0.816000 12.500000 12.500000 # O WAT
37 37 1 0.000000 3.316000 0.000000 0.000000 # O WAT
38 38 1 0.000000 3.316000 0.000000 2.500000 # O WAT
39 39 1 0.000000 3.316000 0.000000 5.000000 # O WAT
40 40 1 0.000000 3.316000 0.000000 7.500000 # O WAT
41 41 1 0.000000 3.316000 0.000000 10.000000 # O WAT
42 42 1 0.000000 3.316000 0.000000 12.500000 # O WAT
43 43 1 0.000000 3.316000 2.500000 0.000000 # O WAT
44 44 1 0.000000 3.316000 2.500000 2.500000 # O WAT
45 45 1 0.000000 3.316000 2.500000 5.000000 # O WAT
46 46 1 0.000000 3.316000 2.500000 7.500000 # O WAT
47 47 1 0.000000 3.316000 2.500000 10.000000 # O WAT
48 48 1 0.000000 3.316000 2.500000 12.500000 # O WAT
49 49 1 0.000000 3.316000 5.000000 0.000000 # O WAT
50 50 1 0.000000 3.316000 5.000000 2.500000 # O WAT
51 51 1 0.000000 3.316000 5.000000 5.000000 # O WAT
52 52 1 0.000000 3.316000 5.000000 7.500000 # O WAT
53 53 1 0.000000 3.316000 5.000000 10.000000 # O WAT
54 54 1 0.000000 3.316000 5.000000 12.500000 # O WAT
55 55 1 0.000000 3.316000 7.500000 0.000000 # O WAT
56 56 1 0.000000 3.316000 7.500000 2.500000 # O WAT
57 57 1 0.000000 3.316000 7.500000 5.000000 # O WAT
58 58 1 0.000000 3.316000 7.500000 7.500000 # O WAT
59 59 1 0.000000 3.316000 7.500000 10.000000 # O WAT
60 60 1 0.000000 3.316000 7.500000 12.500000 # O WAT
61 61 1 0.000000 3.316000 10.000000 0.000000 # O WAT
62 62 1 0.000000 3.316000 10.000000 2.500000 # O WAT
63 63 1 0.000000 3.316000 10.000000 5.000000 # O WAT
64 64 1 0.000000 3.316000 10.000000 7.500000 # O WAT
65 65 1 0.000000 3.316000 10.000000 10.000000 # O WAT
66 66 1 0.000000 3.316000 10.000000 12.500000 # O WAT
67 67 1 0.000000 3.316000 12.500000 0.000000 # O WAT
68 68 1 0.000000 3.316000 12.500000 2.500000 # O WAT
69 69 1 0.000000 3.316000 12.500000 5.000000 # O WAT
70 70 1 0.000000 3.316000 12.500000 7.500000 # O WAT
71 71 1 0.000000 3.316000 12.500000 10.000000 # O WAT
72 72 1 0.000000 3.316000 12.500000 12.500000 # O WAT
73 73 1 0.000000 5.816000 0.000000 0.000000 # O WAT
74 74 1 0.000000 5.816000 0.000000 2.500000 # O WAT
75 75 1 0.000000 5.816000 0.000000 5.000000 # O WAT
76 76 1 0.000000 5.816000 0.000000 7.500000 # O WAT
77 77 1 0.000000 5.816000 0.000000 10.000000 # O WAT
78 78 1 0.000000 5.816000 0.000000 12.500000 # O WAT
79 79 1 0.000000 5.816000 2.500000 0.000000 # O WAT
80 80 1 0.000000 5.816000 2.500000 2.500000 # O WAT
81 81 1 0.000000 5.816000 2.500000 5.000000 # O WAT
82 82 1 0.000000 5.816000 2.500000 7.500000 # O WAT
83 83 1 0.000000 5.816000 2.500000 10.000000 # O WAT
84 84 1 0.000000 5.816000 2.500000 12.500000 # O WAT
85 85 1 0.000000 5.816000 5.000000 0.000000 # O WAT
86 86 1 0.000000 5.816000 5.000000 2.500000 # O WAT
87 87 1 0.000000 5.816000 5.000000 5.000000 # O WAT
88 88 1 0.000000 5.816000 5.000000 7.500000 # O WAT
89 89 1 0.000000 5.816000 5.000000 10.000000 # O WAT
90 90 1 0.000000 5.816000 5.000000 12.500000 # O WAT
91 91 1 0.000000 5.816000 7.500000 0.000000 # O WAT
92 92 1 0.000000 5.816000 7.500000 2.500000 # O WAT
93 93 1 0.000000 5.816000 7.500000 5.000000 # O WAT
94 94 1 0.000000 5.816000 7.500000 7.500000 # O WAT
95 95 1 0.000000 5.816000 7.500000 10.000000 # O WAT
96 96 1 0.000000 5.816000 7.500000 12.500000 # O WAT
97 97 1 0.000000 5.816000 10.000000 0.000000 # O WAT
98 98 1 0.000000 5.816000 10.000000 2.500000 # O WAT
99 99 1 0.000000 5.816000 10.000000 5.000000 # O WAT
100 100 1 0.000000 5.816000 10.000000 7.500000 # O WAT
101 101 1 0.000000 5.816000 10.000000 10.000000 # O WAT
102 102 1 0.000000 5.816000 10.000000 12.500000 # O WAT
103 103 1 0.000000 5.816000 12.500000 0.000000 # O WAT
104 104 1 0.000000 5.816000 12.500000 2.500000 # O WAT
105 105 1 0.000000 5.816000 12.500000 5.000000 # O WAT
106 106 1 0.000000 5.816000 12.500000 7.500000 # O WAT
107 107 1 0.000000 5.816000 12.500000 10.000000 # O WAT
108 108 1 0.000000 5.816000 12.500000 12.500000 # O WAT
109 109 1 0.000000 8.316000 0.000000 0.000000 # O WAT
110 110 1 0.000000 8.316000 0.000000 2.500000 # O WAT
111 111 1 0.000000 8.316000 0.000000 5.000000 # O WAT
112 112 1 0.000000 8.316000 0.000000 7.500000 # O WAT
113 113 1 0.000000 8.316000 0.000000 10.000000 # O WAT
114 114 1 0.000000 8.316000 0.000000 12.500000 # O WAT
115 115 1 0.000000 8.316000 2.500000 0.000000 # O WAT
116 116 1 0.000000 8.316000 2.500000 2.500000 # O WAT
117 117 1 0.000000 8.316000 2.500000 5.000000 # O WAT
118 118 1 0.000000 8.316000 2.500000 7.500000 # O WAT
119 119 1 0.000000 8.316000 2.500000 10.000000 # O WAT
120 120 1 0.000000 8.316000 2.500000 12.500000 # O WAT
121 121 1 0.000000 8.316000 5.000000 0.000000 # O WAT
122 122 1 0.000000 8.316000 5.000000 2.500000 # O WAT
123 123 1 0.000000 8.316000 5.000000 5.000000 # O WAT
124 124 1 0.000000 8.316000 5.000000 7.500000 # O WAT
125 125 1 0.000000 8.316000 5.000000 10.000000 # O WAT
126 126 1 0.000000 8.316000 5.000000 12.500000 # O WAT
127 127 1 0.000000 8.316000 7.500000 0.000000 # O WAT
128 128 1 0.000000 8.316000 7.500000 2.500000 # O WAT
129 129 1 0.000000 8.316000 7.500000 5.000000 # O WAT
130 130 1 0.000000 8.316000 7.500000 7.500000 # O WAT
131 131 1 0.000000 8.316000 7.500000 10.000000 # O WAT
132 132 1 0.000000 8.316000 7.500000 12.500000 # O WAT
133 133 1 0.000000 8.316000 10.000000 0.000000 # O WAT
134 134 1 0.000000 8.316000 10.000000 2.500000 # O WAT
135 135 1 0.000000 8.316000 10.000000 5.000000 # O WAT
136 136 1 0.000000 8.316000 10.000000 7.500000 # O WAT
137 137 1 0.000000 8.316000 10.000000 10.000000 # O WAT
138 138 1 0.000000 8.316000 10.000000 12.500000 # O WAT
139 139 1 0.000000 8.316000 12.500000 0.000000 # O WAT
140 140 1 0.000000 8.316000 12.500000 2.500000 # O WAT
141 141 1 0.000000 8.316000 12.500000 5.000000 # O WAT
142 142 1 0.000000 8.316000 12.500000 7.500000 # O WAT
143 143 1 0.000000 8.316000 12.500000 10.000000 # O WAT
144 144 1 0.000000 8.316000 12.500000 12.500000 # O WAT
145 145 1 0.000000 10.816000 0.000000 0.000000 # O WAT
146 146 1 0.000000 10.816000 0.000000 2.500000 # O WAT
147 147 1 0.000000 10.816000 0.000000 5.000000 # O WAT
148 148 1 0.000000 10.816000 0.000000 7.500000 # O WAT
149 149 1 0.000000 10.816000 0.000000 10.000000 # O WAT
150 150 1 0.000000 10.816000 0.000000 12.500000 # O WAT
151 151 1 0.000000 10.816000 2.500000 0.000000 # O WAT
152 152 1 0.000000 10.816000 2.500000 2.500000 # O WAT
153 153 1 0.000000 10.816000 2.500000 5.000000 # O WAT
154 154 1 0.000000 10.816000 2.500000 7.500000 # O WAT
155 155 1 0.000000 10.816000 2.500000 10.000000 # O WAT
156 156 1 0.000000 10.816000 2.500000 12.500000 # O WAT
157 157 1 0.000000 10.816000 5.000000 0.000000 # O WAT
158 158 1 0.000000 10.816000 5.000000 2.500000 # O WAT
159 159 1 0.000000 10.816000 5.000000 5.000000 # O WAT
160 160 1 0.000000 10.816000 5.000000 7.500000 # O WAT
161 161 1 0.000000 10.816000 5.000000 10.000000 # O WAT
162 162 1 0.000000 10.816000 5.000000 12.500000 # O WAT
163 163 1 0.000000 10.816000 7.500000 0.000000 # O WAT
164 164 1 0.000000 10.816000 7.500000 2.500000 # O WAT
165 165 1 0.000000 10.816000 7.500000 5.000000 # O WAT
166 166 1 0.000000 10.816000 7.500000 7.500000 # O WAT
167 167 1 0.000000 10.816000 7.500000 10.000000 # O WAT
168 168 1 0.000000 10.816000 7.500000 12.500000 # O WAT
169 169 1 0.000000 10.816000 10.000000 0.000000 # O WAT
170 170 1 0.000000 10.816000 10.000000 2.500000 # O WAT
171 171 1 0.000000 10.816000 10.000000 5.000000 # O WAT
172 172 1 0.000000 10.816000 10.000000 7.500000 # O WAT
173 173 1 0.000000 10.816000 10.000000 10.000000 # O WAT
174 174 1 0.000000 10.816000 10.000000 12.500000 # O WAT
175 175 1 0.000000 10.816000 12.500000 0.000000 # O WAT
176 176 1 0.000000 10.816000 12.500000 2.500000 # O WAT
177 177 1 0.000000 10.816000 12.500000 5.000000 # O WAT
178 178 1 0.000000 10.816000 12.500000 7.500000 # O WAT
179 179 1 0.000000 10.816000 12.500000 10.000000 # O WAT
180 180 1 0.000000 10.816000 12.500000 12.500000 # O WAT
181 181 1 0.000000 13.316000 0.000000 0.000000 # O WAT
182 182 1 0.000000 13.316000 0.000000 2.500000 # O WAT
183 183 1 0.000000 13.316000 0.000000 5.000000 # O WAT
184 184 1 0.000000 13.316000 0.000000 7.500000 # O WAT
185 185 1 0.000000 13.316000 0.000000 10.000000 # O WAT
186 186 1 0.000000 13.316000 0.000000 12.500000 # O WAT
187 187 1 0.000000 13.316000 2.500000 0.000000 # O WAT
188 188 1 0.000000 13.316000 2.500000 2.500000 # O WAT
189 189 1 0.000000 13.316000 2.500000 5.000000 # O WAT
190 190 1 0.000000 13.316000 2.500000 7.500000 # O WAT
191 191 1 0.000000 13.316000 2.500000 10.000000 # O WAT
192 192 1 0.000000 13.316000 2.500000 12.500000 # O WAT
193 193 1 0.000000 13.316000 5.000000 0.000000 # O WAT
194 194 1 0.000000 13.316000 5.000000 2.500000 # O WAT
195 195 1 0.000000 13.316000 5.000000 5.000000 # O WAT
196 196 1 0.000000 13.316000 5.000000 7.500000 # O WAT
197 197 1 0.000000 13.316000 5.000000 10.000000 # O WAT
198 198 1 0.000000 13.316000 5.000000 12.500000 # O WAT
199 199 1 0.000000 13.316000 7.500000 0.000000 # O WAT
200 200 1 0.000000 13.316000 7.500000 2.500000 # O WAT
201 201 1 0.000000 13.316000 7.500000 5.000000 # O WAT
202 202 1 0.000000 13.316000 7.500000 7.500000 # O WAT
203 203 1 0.000000 13.316000 7.500000 10.000000 # O WAT
204 204 1 0.000000 13.316000 7.500000 12.500000 # O WAT
205 205 1 0.000000 13.316000 10.000000 0.000000 # O WAT
206 206 1 0.000000 13.316000 10.000000 2.500000 # O WAT
207 207 1 0.000000 13.316000 10.000000 5.000000 # O WAT
208 208 1 0.000000 13.316000 10.000000 7.500000 # O WAT
209 209 1 0.000000 13.316000 10.000000 10.000000 # O WAT
210 210 1 0.000000 13.316000 10.000000 12.500000 # O WAT
211 211 1 0.000000 13.316000 12.500000 0.000000 # O WAT
212 212 1 0.000000 13.316000 12.500000 2.500000 # O WAT
213 213 1 0.000000 13.316000 12.500000 5.000000 # O WAT
214 214 1 0.000000 13.316000 12.500000 7.500000 # O WAT
215 215 1 0.000000 13.316000 12.500000 10.000000 # O WAT
216 216 1 0.000000 13.316000 12.500000 12.500000 # O WAT

