LAMMPS data file. CGCMM style. atom_style full generated by VMD/TopoTools v1.4 on Fri Apr 04 12:12:13 EST 2014
 648 atoms
 432 bonds
 216 angles
 0 dihedrals
 0 impropers
 2 atom types
 1 bond types
 1 angle types
 0 dihedral types
 0 improper types

0 18.625793 xlo xhi
0 18.625793 ylo yhi
0 18.625793 zlo zhi



# Pair Coeffs
#
# 1  H
# 2  O

# Bond Coeffs
#
# 1  

# Angle Coeffs
#
# 1  unknown

 Masses

 1 1.008000 # H
 2 15.999400 # O

 Atoms

1 1 2 -0.847600 0.816000 0.000000 0.000000 # O WAT
2 1 1 0.423800 1.633000 0.000000 0.577000 # H WAT
3 1 1 0.423800 0.000000 0.000000 0.577000 # H WAT
4 2 2 -0.847600 0.816000 0.000000 2.500000 # O WAT
5 2 1 0.423800 1.633000 0.000000 3.077000 # H WAT
6 2 1 0.423800 0.000000 0.000000 3.077000 # H WAT
7 3 2 -0.847600 0.816000 0.000000 5.000000 # O WAT
8 3 1 0.423800 1.633000 0.000000 5.577000 # H WAT
9 3 1 0.423800 0.000000 0.000000 5.577000 # H WAT
10 4 2 -0.847600 0.816000 0.000000 7.500000 # O WAT
11 4 1 0.423800 1.633000 0.000000 8.077000 # H WAT
12 4 1 0.423800 0.000000 0.000000 8.077000 # H WAT
13 5 2 -0.847600 0.816000 0.000000 10.000000 # O WAT
14 5 1 0.423800 1.633000 0.000000 10.577000 # H WAT
15 5 1 0.423800 0.000000 0.000000 10.577000 # H WAT
16 6 2 -0.847600 0.816000 0.000000 12.500000 # O WAT
17 6 1 0.423800 1.633000 0.000000 13.077000 # H WAT
18 6 1 0.423800 0.000000 0.000000 13.077000 # H WAT
19 7 2 -0.847600 0.816000 2.500000 0.000000 # O WAT
20 7 1 0.423800 1.633000 2.500000 0.577000 # H WAT
21 7 1 0.423800 0.000000 2.500000 0.577000 # H WAT
22 8 2 -0.847600 0.816000 2.500000 2.500000 # O WAT
23 8 1 0.423800 1.633000 2.500000 3.077000 # H WAT
24 8 1 0.423800 0.000000 2.500000 3.077000 # H WAT
25 9 2 -0.847600 0.816000 2.500000 5.000000 # O WAT
26 9 1 0.423800 1.633000 2.500000 5.577000 # H WAT
27 9 1 0.423800 0.000000 2.500000 5.577000 # H WAT
28 10 2 -0.847600 0.816000 2.500000 7.500000 # O WAT
29 10 1 0.423800 1.633000 2.500000 8.077000 # H WAT
30 10 1 0.423800 0.000000 2.500000 8.077000 # H WAT
31 11 2 -0.847600 0.816000 2.500000 10.000000 # O WAT
32 11 1 0.423800 1.633000 2.500000 10.577000 # H WAT
33 11 1 0.423800 0.000000 2.500000 10.577000 # H WAT
34 12 2 -0.847600 0.816000 2.500000 12.500000 # O WAT
35 12 1 0.423800 1.633000 2.500000 13.077000 # H WAT
36 12 1 0.423800 0.000000 2.500000 13.077000 # H WAT
37 13 2 -0.847600 0.816000 5.000000 0.000000 # O WAT
38 13 1 0.423800 1.633000 5.000000 0.577000 # H WAT
39 13 1 0.423800 0.000000 5.000000 0.577000 # H WAT
40 14 2 -0.847600 0.816000 5.000000 2.500000 # O WAT
41 14 1 0.423800 1.633000 5.000000 3.077000 # H WAT
42 14 1 0.423800 0.000000 5.000000 3.077000 # H WAT
43 15 2 -0.847600 0.816000 5.000000 5.000000 # O WAT
44 15 1 0.423800 1.633000 5.000000 5.577000 # H WAT
45 15 1 0.423800 0.000000 5.000000 5.577000 # H WAT
46 16 2 -0.847600 0.816000 5.000000 7.500000 # O WAT
47 16 1 0.423800 1.633000 5.000000 8.077000 # H WAT
48 16 1 0.423800 0.000000 5.000000 8.077000 # H WAT
49 17 2 -0.847600 0.816000 5.000000 10.000000 # O WAT
50 17 1 0.423800 1.633000 5.000000 10.577000 # H WAT
51 17 1 0.423800 0.000000 5.000000 10.577000 # H WAT
52 18 2 -0.847600 0.816000 5.000000 12.500000 # O WAT
53 18 1 0.423800 1.633000 5.000000 13.077000 # H WAT
54 18 1 0.423800 0.000000 5.000000 13.077000 # H WAT
55 19 2 -0.847600 0.816000 7.500000 0.000000 # O WAT
56 19 1 0.423800 1.633000 7.500000 0.577000 # H WAT
57 19 1 0.423800 0.000000 7.500000 0.577000 # H WAT
58 20 2 -0.847600 0.816000 7.500000 2.500000 # O WAT
59 20 1 0.423800 1.633000 7.500000 3.077000 # H WAT
60 20 1 0.423800 0.000000 7.500000 3.077000 # H WAT
61 21 2 -0.847600 0.816000 7.500000 5.000000 # O WAT
62 21 1 0.423800 1.633000 7.500000 5.577000 # H WAT
63 21 1 0.423800 0.000000 7.500000 5.577000 # H WAT
64 22 2 -0.847600 0.816000 7.500000 7.500000 # O WAT
65 22 1 0.423800 1.633000 7.500000 8.077000 # H WAT
66 22 1 0.423800 0.000000 7.500000 8.077000 # H WAT
67 23 2 -0.847600 0.816000 7.500000 10.000000 # O WAT
68 23 1 0.423800 1.633000 7.500000 10.577000 # H WAT
69 23 1 0.423800 0.000000 7.500000 10.577000 # H WAT
70 24 2 -0.847600 0.816000 7.500000 12.500000 # O WAT
71 24 1 0.423800 1.633000 7.500000 13.077000 # H WAT
72 24 1 0.423800 0.000000 7.500000 13.077000 # H WAT
73 25 2 -0.847600 0.816000 10.000000 0.000000 # O WAT
74 25 1 0.423800 1.633000 10.000000 0.577000 # H WAT
75 25 1 0.423800 0.000000 10.000000 0.577000 # H WAT
76 26 2 -0.847600 0.816000 10.000000 2.500000 # O WAT
77 26 1 0.423800 1.633000 10.000000 3.077000 # H WAT
78 26 1 0.423800 0.000000 10.000000 3.077000 # H WAT
79 27 2 -0.847600 0.816000 10.000000 5.000000 # O WAT
80 27 1 0.423800 1.633000 10.000000 5.577000 # H WAT
81 27 1 0.423800 0.000000 10.000000 5.577000 # H WAT
82 28 2 -0.847600 0.816000 10.000000 7.500000 # O WAT
83 28 1 0.423800 1.633000 10.000000 8.077000 # H WAT
84 28 1 0.423800 0.000000 10.000000 8.077000 # H WAT
85 29 2 -0.847600 0.816000 10.000000 10.000000 # O WAT
86 29 1 0.423800 1.633000 10.000000 10.577000 # H WAT
87 29 1 0.423800 0.000000 10.000000 10.577000 # H WAT
88 30 2 -0.847600 0.816000 10.000000 12.500000 # O WAT
89 30 1 0.423800 1.633000 10.000000 13.077000 # H WAT
90 30 1 0.423800 0.000000 10.000000 13.077000 # H WAT
91 31 2 -0.847600 0.816000 12.500000 0.000000 # O WAT
92 31 1 0.423800 1.633000 12.500000 0.577000 # H WAT
93 31 1 0.423800 0.000000 12.500000 0.577000 # H WAT
94 32 2 -0.847600 0.816000 12.500000 2.500000 # O WAT
95 32 1 0.423800 1.633000 12.500000 3.077000 # H WAT
96 32 1 0.423800 0.000000 12.500000 3.077000 # H WAT
97 33 2 -0.847600 0.816000 12.500000 5.000000 # O WAT
98 33 1 0.423800 1.633000 12.500000 5.577000 # H WAT
99 33 1 0.423800 0.000000 12.500000 5.577000 # H WAT
100 34 2 -0.847600 0.816000 12.500000 7.500000 # O WAT
101 34 1 0.423800 1.633000 12.500000 8.077000 # H WAT
102 34 1 0.423800 0.000000 12.500000 8.077000 # H WAT
103 35 2 -0.847600 0.816000 12.500000 10.000000 # O WAT
104 35 1 0.423800 1.633000 12.500000 10.577000 # H WAT
105 35 1 0.423800 0.000000 12.500000 10.577000 # H WAT
106 36 2 -0.847600 0.816000 12.500000 12.500000 # O WAT
107 36 1 0.423800 1.633000 12.500000 13.077000 # H WAT
108 36 1 0.423800 0.000000 12.500000 13.077000 # H WAT
109 37 2 -0.847600 3.316000 0.000000 0.000000 # O WAT
110 37 1 0.423800 4.133000 0.000000 0.577000 # H WAT
111 37 1 0.423800 2.500000 0.000000 0.577000 # H WAT
112 38 2 -0.847600 3.316000 0.000000 2.500000 # O WAT
113 38 1 0.423800 4.133000 0.000000 3.077000 # H WAT
114 38 1 0.423800 2.500000 0.000000 3.077000 # H WAT
115 39 2 -0.847600 3.316000 0.000000 5.000000 # O WAT
116 39 1 0.423800 4.133000 0.000000 5.577000 # H WAT
117 39 1 0.423800 2.500000 0.000000 5.577000 # H WAT
118 40 2 -0.847600 3.316000 0.000000 7.500000 # O WAT
119 40 1 0.423800 4.133000 0.000000 8.077000 # H WAT
120 40 1 0.423800 2.500000 0.000000 8.077000 # H WAT
121 41 2 -0.847600 3.316000 0.000000 10.000000 # O WAT
122 41 1 0.423800 4.133000 0.000000 10.577000 # H WAT
123 41 1 0.423800 2.500000 0.000000 10.577000 # H WAT
124 42 2 -0.847600 3.316000 0.000000 12.500000 # O WAT
125 42 1 0.423800 4.133000 0.000000 13.077000 # H WAT
126 42 1 0.423800 2.500000 0.000000 13.077000 # H WAT
127 43 2 -0.847600 3.316000 2.500000 0.000000 # O WAT
128 43 1 0.423800 4.133000 2.500000 0.577000 # H WAT
129 43 1 0.423800 2.500000 2.500000 0.577000 # H WAT
130 44 2 -0.847600 3.316000 2.500000 2.500000 # O WAT
131 44 1 0.423800 4.133000 2.500000 3.077000 # H WAT
132 44 1 0.423800 2.500000 2.500000 3.077000 # H WAT
133 45 2 -0.847600 3.316000 2.500000 5.000000 # O WAT
134 45 1 0.423800 4.133000 2.500000 5.577000 # H WAT
135 45 1 0.423800 2.500000 2.500000 5.577000 # H WAT
136 46 2 -0.847600 3.316000 2.500000 7.500000 # O WAT
137 46 1 0.423800 4.133000 2.500000 8.077000 # H WAT
138 46 1 0.423800 2.500000 2.500000 8.077000 # H WAT
139 47 2 -0.847600 3.316000 2.500000 10.000000 # O WAT
140 47 1 0.423800 4.133000 2.500000 10.577000 # H WAT
141 47 1 0.423800 2.500000 2.500000 10.577000 # H WAT
142 48 2 -0.847600 3.316000 2.500000 12.500000 # O WAT
143 48 1 0.423800 4.133000 2.500000 13.077000 # H WAT
144 48 1 0.423800 2.500000 2.500000 13.077000 # H WAT
145 49 2 -0.847600 3.316000 5.000000 0.000000 # O WAT
146 49 1 0.423800 4.133000 5.000000 0.577000 # H WAT
147 49 1 0.423800 2.500000 5.000000 0.577000 # H WAT
148 50 2 -0.847600 3.316000 5.000000 2.500000 # O WAT
149 50 1 0.423800 4.133000 5.000000 3.077000 # H WAT
150 50 1 0.423800 2.500000 5.000000 3.077000 # H WAT
151 51 2 -0.847600 3.316000 5.000000 5.000000 # O WAT
152 51 1 0.423800 4.133000 5.000000 5.577000 # H WAT
153 51 1 0.423800 2.500000 5.000000 5.577000 # H WAT
154 52 2 -0.847600 3.316000 5.000000 7.500000 # O WAT
155 52 1 0.423800 4.133000 5.000000 8.077000 # H WAT
156 52 1 0.423800 2.500000 5.000000 8.077000 # H WAT
157 53 2 -0.847600 3.316000 5.000000 10.000000 # O WAT
158 53 1 0.423800 4.133000 5.000000 10.577000 # H WAT
159 53 1 0.423800 2.500000 5.000000 10.577000 # H WAT
160 54 2 -0.847600 3.316000 5.000000 12.500000 # O WAT
161 54 1 0.423800 4.133000 5.000000 13.077000 # H WAT
162 54 1 0.423800 2.500000 5.000000 13.077000 # H WAT
163 55 2 -0.847600 3.316000 7.500000 0.000000 # O WAT
164 55 1 0.423800 4.133000 7.500000 0.577000 # H WAT
165 55 1 0.423800 2.500000 7.500000 0.577000 # H WAT
166 56 2 -0.847600 3.316000 7.500000 2.500000 # O WAT
167 56 1 0.423800 4.133000 7.500000 3.077000 # H WAT
168 56 1 0.423800 2.500000 7.500000 3.077000 # H WAT
169 57 2 -0.847600 3.316000 7.500000 5.000000 # O WAT
170 57 1 0.423800 4.133000 7.500000 5.577000 # H WAT
171 57 1 0.423800 2.500000 7.500000 5.577000 # H WAT
172 58 2 -0.847600 3.316000 7.500000 7.500000 # O WAT
173 58 1 0.423800 4.133000 7.500000 8.077000 # H WAT
174 58 1 0.423800 2.500000 7.500000 8.077000 # H WAT
175 59 2 -0.847600 3.316000 7.500000 10.000000 # O WAT
176 59 1 0.423800 4.133000 7.500000 10.577000 # H WAT
177 59 1 0.423800 2.500000 7.500000 10.577000 # H WAT
178 60 2 -0.847600 3.316000 7.500000 12.500000 # O WAT
179 60 1 0.423800 4.133000 7.500000 13.077000 # H WAT
180 60 1 0.423800 2.500000 7.500000 13.077000 # H WAT
181 61 2 -0.847600 3.316000 10.000000 0.000000 # O WAT
182 61 1 0.423800 4.133000 10.000000 0.577000 # H WAT
183 61 1 0.423800 2.500000 10.000000 0.577000 # H WAT
184 62 2 -0.847600 3.316000 10.000000 2.500000 # O WAT
185 62 1 0.423800 4.133000 10.000000 3.077000 # H WAT
186 62 1 0.423800 2.500000 10.000000 3.077000 # H WAT
187 63 2 -0.847600 3.316000 10.000000 5.000000 # O WAT
188 63 1 0.423800 4.133000 10.000000 5.577000 # H WAT
189 63 1 0.423800 2.500000 10.000000 5.577000 # H WAT
190 64 2 -0.847600 3.316000 10.000000 7.500000 # O WAT
191 64 1 0.423800 4.133000 10.000000 8.077000 # H WAT
192 64 1 0.423800 2.500000 10.000000 8.077000 # H WAT
193 65 2 -0.847600 3.316000 10.000000 10.000000 # O WAT
194 65 1 0.423800 4.133000 10.000000 10.577000 # H WAT
195 65 1 0.423800 2.500000 10.000000 10.577000 # H WAT
196 66 2 -0.847600 3.316000 10.000000 12.500000 # O WAT
197 66 1 0.423800 4.133000 10.000000 13.077000 # H WAT
198 66 1 0.423800 2.500000 10.000000 13.077000 # H WAT
199 67 2 -0.847600 3.316000 12.500000 0.000000 # O WAT
200 67 1 0.423800 4.133000 12.500000 0.577000 # H WAT
201 67 1 0.423800 2.500000 12.500000 0.577000 # H WAT
202 68 2 -0.847600 3.316000 12.500000 2.500000 # O WAT
203 68 1 0.423800 4.133000 12.500000 3.077000 # H WAT
204 68 1 0.423800 2.500000 12.500000 3.077000 # H WAT
205 69 2 -0.847600 3.316000 12.500000 5.000000 # O WAT
206 69 1 0.423800 4.133000 12.500000 5.577000 # H WAT
207 69 1 0.423800 2.500000 12.500000 5.577000 # H WAT
208 70 2 -0.847600 3.316000 12.500000 7.500000 # O WAT
209 70 1 0.423800 4.133000 12.500000 8.077000 # H WAT
210 70 1 0.423800 2.500000 12.500000 8.077000 # H WAT
211 71 2 -0.847600 3.316000 12.500000 10.000000 # O WAT
212 71 1 0.423800 4.133000 12.500000 10.577000 # H WAT
213 71 1 0.423800 2.500000 12.500000 10.577000 # H WAT
214 72 2 -0.847600 3.316000 12.500000 12.500000 # O WAT
215 72 1 0.423800 4.133000 12.500000 13.077000 # H WAT
216 72 1 0.423800 2.500000 12.500000 13.077000 # H WAT
217 73 2 -0.847600 5.816000 0.000000 0.000000 # O WAT
218 73 1 0.423800 6.633000 0.000000 0.577000 # H WAT
219 73 1 0.423800 5.000000 0.000000 0.577000 # H WAT
220 74 2 -0.847600 5.816000 0.000000 2.500000 # O WAT
221 74 1 0.423800 6.633000 0.000000 3.077000 # H WAT
222 74 1 0.423800 5.000000 0.000000 3.077000 # H WAT
223 75 2 -0.847600 5.816000 0.000000 5.000000 # O WAT
224 75 1 0.423800 6.633000 0.000000 5.577000 # H WAT
225 75 1 0.423800 5.000000 0.000000 5.577000 # H WAT
226 76 2 -0.847600 5.816000 0.000000 7.500000 # O WAT
227 76 1 0.423800 6.633000 0.000000 8.077000 # H WAT
228 76 1 0.423800 5.000000 0.000000 8.077000 # H WAT
229 77 2 -0.847600 5.816000 0.000000 10.000000 # O WAT
230 77 1 0.423800 6.633000 0.000000 10.577000 # H WAT
231 77 1 0.423800 5.000000 0.000000 10.577000 # H WAT
232 78 2 -0.847600 5.816000 0.000000 12.500000 # O WAT
233 78 1 0.423800 6.633000 0.000000 13.077000 # H WAT
234 78 1 0.423800 5.000000 0.000000 13.077000 # H WAT
235 79 2 -0.847600 5.816000 2.500000 0.000000 # O WAT
236 79 1 0.423800 6.633000 2.500000 0.577000 # H WAT
237 79 1 0.423800 5.000000 2.500000 0.577000 # H WAT
238 80 2 -0.847600 5.816000 2.500000 2.500000 # O WAT
239 80 1 0.423800 6.633000 2.500000 3.077000 # H WAT
240 80 1 0.423800 5.000000 2.500000 3.077000 # H WAT
241 81 2 -0.847600 5.816000 2.500000 5.000000 # O WAT
242 81 1 0.423800 6.633000 2.500000 5.577000 # H WAT
243 81 1 0.423800 5.000000 2.500000 5.577000 # H WAT
244 82 2 -0.847600 5.816000 2.500000 7.500000 # O WAT
245 82 1 0.423800 6.633000 2.500000 8.077000 # H WAT
246 82 1 0.423800 5.000000 2.500000 8.077000 # H WAT
247 83 2 -0.847600 5.816000 2.500000 10.000000 # O WAT
248 83 1 0.423800 6.633000 2.500000 10.577000 # H WAT
249 83 1 0.423800 5.000000 2.500000 10.577000 # H WAT
250 84 2 -0.847600 5.816000 2.500000 12.500000 # O WAT
251 84 1 0.423800 6.633000 2.500000 13.077000 # H WAT
252 84 1 0.423800 5.000000 2.500000 13.077000 # H WAT
253 85 2 -0.847600 5.816000 5.000000 0.000000 # O WAT
254 85 1 0.423800 6.633000 5.000000 0.577000 # H WAT
255 85 1 0.423800 5.000000 5.000000 0.577000 # H WAT
256 86 2 -0.847600 5.816000 5.000000 2.500000 # O WAT
257 86 1 0.423800 6.633000 5.000000 3.077000 # H WAT
258 86 1 0.423800 5.000000 5.000000 3.077000 # H WAT
259 87 2 -0.847600 5.816000 5.000000 5.000000 # O WAT
260 87 1 0.423800 6.633000 5.000000 5.577000 # H WAT
261 87 1 0.423800 5.000000 5.000000 5.577000 # H WAT
262 88 2 -0.847600 5.816000 5.000000 7.500000 # O WAT
263 88 1 0.423800 6.633000 5.000000 8.077000 # H WAT
264 88 1 0.423800 5.000000 5.000000 8.077000 # H WAT
265 89 2 -0.847600 5.816000 5.000000 10.000000 # O WAT
266 89 1 0.423800 6.633000 5.000000 10.577000 # H WAT
267 89 1 0.423800 5.000000 5.000000 10.577000 # H WAT
268 90 2 -0.847600 5.816000 5.000000 12.500000 # O WAT
269 90 1 0.423800 6.633000 5.000000 13.077000 # H WAT
270 90 1 0.423800 5.000000 5.000000 13.077000 # H WAT
271 91 2 -0.847600 5.816000 7.500000 0.000000 # O WAT
272 91 1 0.423800 6.633000 7.500000 0.577000 # H WAT
273 91 1 0.423800 5.000000 7.500000 0.577000 # H WAT
274 92 2 -0.847600 5.816000 7.500000 2.500000 # O WAT
275 92 1 0.423800 6.633000 7.500000 3.077000 # H WAT
276 92 1 0.423800 5.000000 7.500000 3.077000 # H WAT
277 93 2 -0.847600 5.816000 7.500000 5.000000 # O WAT
278 93 1 0.423800 6.633000 7.500000 5.577000 # H WAT
279 93 1 0.423800 5.000000 7.500000 5.577000 # H WAT
280 94 2 -0.847600 5.816000 7.500000 7.500000 # O WAT
281 94 1 0.423800 6.633000 7.500000 8.077000 # H WAT
282 94 1 0.423800 5.000000 7.500000 8.077000 # H WAT
283 95 2 -0.847600 5.816000 7.500000 10.000000 # O WAT
284 95 1 0.423800 6.633000 7.500000 10.577000 # H WAT
285 95 1 0.423800 5.000000 7.500000 10.577000 # H WAT
286 96 2 -0.847600 5.816000 7.500000 12.500000 # O WAT
287 96 1 0.423800 6.633000 7.500000 13.077000 # H WAT
288 96 1 0.423800 5.000000 7.500000 13.077000 # H WAT
289 97 2 -0.847600 5.816000 10.000000 0.000000 # O WAT
290 97 1 0.423800 6.633000 10.000000 0.577000 # H WAT
291 97 1 0.423800 5.000000 10.000000 0.577000 # H WAT
292 98 2 -0.847600 5.816000 10.000000 2.500000 # O WAT
293 98 1 0.423800 6.633000 10.000000 3.077000 # H WAT
294 98 1 0.423800 5.000000 10.000000 3.077000 # H WAT
295 99 2 -0.847600 5.816000 10.000000 5.000000 # O WAT
296 99 1 0.423800 6.633000 10.000000 5.577000 # H WAT
297 99 1 0.423800 5.000000 10.000000 5.577000 # H WAT
298 100 2 -0.847600 5.816000 10.000000 7.500000 # O WAT
299 100 1 0.423800 6.633000 10.000000 8.077000 # H WAT
300 100 1 0.423800 5.000000 10.000000 8.077000 # H WAT
301 101 2 -0.847600 5.816000 10.000000 10.000000 # O WAT
302 101 1 0.423800 6.633000 10.000000 10.577000 # H WAT
303 101 1 0.423800 5.000000 10.000000 10.577000 # H WAT
304 102 2 -0.847600 5.816000 10.000000 12.500000 # O WAT
305 102 1 0.423800 6.633000 10.000000 13.077000 # H WAT
306 102 1 0.423800 5.000000 10.000000 13.077000 # H WAT
307 103 2 -0.847600 5.816000 12.500000 0.000000 # O WAT
308 103 1 0.423800 6.633000 12.500000 0.577000 # H WAT
309 103 1 0.423800 5.000000 12.500000 0.577000 # H WAT
310 104 2 -0.847600 5.816000 12.500000 2.500000 # O WAT
311 104 1 0.423800 6.633000 12.500000 3.077000 # H WAT
312 104 1 0.423800 5.000000 12.500000 3.077000 # H WAT
313 105 2 -0.847600 5.816000 12.500000 5.000000 # O WAT
314 105 1 0.423800 6.633000 12.500000 5.577000 # H WAT
315 105 1 0.423800 5.000000 12.500000 5.577000 # H WAT
316 106 2 -0.847600 5.816000 12.500000 7.500000 # O WAT
317 106 1 0.423800 6.633000 12.500000 8.077000 # H WAT
318 106 1 0.423800 5.000000 12.500000 8.077000 # H WAT
319 107 2 -0.847600 5.816000 12.500000 10.000000 # O WAT
320 107 1 0.423800 6.633000 12.500000 10.577000 # H WAT
321 107 1 0.423800 5.000000 12.500000 10.577000 # H WAT
322 108 2 -0.847600 5.816000 12.500000 12.500000 # O WAT
323 108 1 0.423800 6.633000 12.500000 13.077000 # H WAT
324 108 1 0.423800 5.000000 12.500000 13.077000 # H WAT
325 109 2 -0.847600 8.316000 0.000000 0.000000 # O WAT
326 109 1 0.423800 9.133000 0.000000 0.577000 # H WAT
327 109 1 0.423800 7.500000 0.000000 0.577000 # H WAT
328 110 2 -0.847600 8.316000 0.000000 2.500000 # O WAT
329 110 1 0.423800 9.133000 0.000000 3.077000 # H WAT
330 110 1 0.423800 7.500000 0.000000 3.077000 # H WAT
331 111 2 -0.847600 8.316000 0.000000 5.000000 # O WAT
332 111 1 0.423800 9.133000 0.000000 5.577000 # H WAT
333 111 1 0.423800 7.500000 0.000000 5.577000 # H WAT
334 112 2 -0.847600 8.316000 0.000000 7.500000 # O WAT
335 112 1 0.423800 9.133000 0.000000 8.077000 # H WAT
336 112 1 0.423800 7.500000 0.000000 8.077000 # H WAT
337 113 2 -0.847600 8.316000 0.000000 10.000000 # O WAT
338 113 1 0.423800 9.133000 0.000000 10.577000 # H WAT
339 113 1 0.423800 7.500000 0.000000 10.577000 # H WAT
340 114 2 -0.847600 8.316000 0.000000 12.500000 # O WAT
341 114 1 0.423800 9.133000 0.000000 13.077000 # H WAT
342 114 1 0.423800 7.500000 0.000000 13.077000 # H WAT
343 115 2 -0.847600 8.316000 2.500000 0.000000 # O WAT
344 115 1 0.423800 9.133000 2.500000 0.577000 # H WAT
345 115 1 0.423800 7.500000 2.500000 0.577000 # H WAT
346 116 2 -0.847600 8.316000 2.500000 2.500000 # O WAT
347 116 1 0.423800 9.133000 2.500000 3.077000 # H WAT
348 116 1 0.423800 7.500000 2.500000 3.077000 # H WAT
349 117 2 -0.847600 8.316000 2.500000 5.000000 # O WAT
350 117 1 0.423800 9.133000 2.500000 5.577000 # H WAT
351 117 1 0.423800 7.500000 2.500000 5.577000 # H WAT
352 118 2 -0.847600 8.316000 2.500000 7.500000 # O WAT
353 118 1 0.423800 9.133000 2.500000 8.077000 # H WAT
354 118 1 0.423800 7.500000 2.500000 8.077000 # H WAT
355 119 2 -0.847600 8.316000 2.500000 10.000000 # O WAT
356 119 1 0.423800 9.133000 2.500000 10.577000 # H WAT
357 119 1 0.423800 7.500000 2.500000 10.577000 # H WAT
358 120 2 -0.847600 8.316000 2.500000 12.500000 # O WAT
359 120 1 0.423800 9.133000 2.500000 13.077000 # H WAT
360 120 1 0.423800 7.500000 2.500000 13.077000 # H WAT
361 121 2 -0.847600 8.316000 5.000000 0.000000 # O WAT
362 121 1 0.423800 9.133000 5.000000 0.577000 # H WAT
363 121 1 0.423800 7.500000 5.000000 0.577000 # H WAT
364 122 2 -0.847600 8.316000 5.000000 2.500000 # O WAT
365 122 1 0.423800 9.133000 5.000000 3.077000 # H WAT
366 122 1 0.423800 7.500000 5.000000 3.077000 # H WAT
367 123 2 -0.847600 8.316000 5.000000 5.000000 # O WAT
368 123 1 0.423800 9.133000 5.000000 5.577000 # H WAT
369 123 1 0.423800 7.500000 5.000000 5.577000 # H WAT
370 124 2 -0.847600 8.316000 5.000000 7.500000 # O WAT
371 124 1 0.423800 9.133000 5.000000 8.077000 # H WAT
372 124 1 0.423800 7.500000 5.000000 8.077000 # H WAT
373 125 2 -0.847600 8.316000 5.000000 10.000000 # O WAT
374 125 1 0.423800 9.133000 5.000000 10.577000 # H WAT
375 125 1 0.423800 7.500000 5.000000 10.577000 # H WAT
376 126 2 -0.847600 8.316000 5.000000 12.500000 # O WAT
377 126 1 0.423800 9.133000 5.000000 13.077000 # H WAT
378 126 1 0.423800 7.500000 5.000000 13.077000 # H WAT
379 127 2 -0.847600 8.316000 7.500000 0.000000 # O WAT
380 127 1 0.423800 9.133000 7.500000 0.577000 # H WAT
381 127 1 0.423800 7.500000 7.500000 0.577000 # H WAT
382 128 2 -0.847600 8.316000 7.500000 2.500000 # O WAT
383 128 1 0.423800 9.133000 7.500000 3.077000 # H WAT
384 128 1 0.423800 7.500000 7.500000 3.077000 # H WAT
385 129 2 -0.847600 8.316000 7.500000 5.000000 # O WAT
386 129 1 0.423800 9.133000 7.500000 5.577000 # H WAT
387 129 1 0.423800 7.500000 7.500000 5.577000 # H WAT
388 130 2 -0.847600 8.316000 7.500000 7.500000 # O WAT
389 130 1 0.423800 9.133000 7.500000 8.077000 # H WAT
390 130 1 0.423800 7.500000 7.500000 8.077000 # H WAT
391 131 2 -0.847600 8.316000 7.500000 10.000000 # O WAT
392 131 1 0.423800 9.133000 7.500000 10.577000 # H WAT
393 131 1 0.423800 7.500000 7.500000 10.577000 # H WAT
394 132 2 -0.847600 8.316000 7.500000 12.500000 # O WAT
395 132 1 0.423800 9.133000 7.500000 13.077000 # H WAT
396 132 1 0.423800 7.500000 7.500000 13.077000 # H WAT
397 133 2 -0.847600 8.316000 10.000000 0.000000 # O WAT
398 133 1 0.423800 9.133000 10.000000 0.577000 # H WAT
399 133 1 0.423800 7.500000 10.000000 0.577000 # H WAT
400 134 2 -0.847600 8.316000 10.000000 2.500000 # O WAT
401 134 1 0.423800 9.133000 10.000000 3.077000 # H WAT
402 134 1 0.423800 7.500000 10.000000 3.077000 # H WAT
403 135 2 -0.847600 8.316000 10.000000 5.000000 # O WAT
404 135 1 0.423800 9.133000 10.000000 5.577000 # H WAT
405 135 1 0.423800 7.500000 10.000000 5.577000 # H WAT
406 136 2 -0.847600 8.316000 10.000000 7.500000 # O WAT
407 136 1 0.423800 9.133000 10.000000 8.077000 # H WAT
408 136 1 0.423800 7.500000 10.000000 8.077000 # H WAT
409 137 2 -0.847600 8.316000 10.000000 10.000000 # O WAT
410 137 1 0.423800 9.133000 10.000000 10.577000 # H WAT
411 137 1 0.423800 7.500000 10.000000 10.577000 # H WAT
412 138 2 -0.847600 8.316000 10.000000 12.500000 # O WAT
413 138 1 0.423800 9.133000 10.000000 13.077000 # H WAT
414 138 1 0.423800 7.500000 10.000000 13.077000 # H WAT
415 139 2 -0.847600 8.316000 12.500000 0.000000 # O WAT
416 139 1 0.423800 9.133000 12.500000 0.577000 # H WAT
417 139 1 0.423800 7.500000 12.500000 0.577000 # H WAT
418 140 2 -0.847600 8.316000 12.500000 2.500000 # O WAT
419 140 1 0.423800 9.133000 12.500000 3.077000 # H WAT
420 140 1 0.423800 7.500000 12.500000 3.077000 # H WAT
421 141 2 -0.847600 8.316000 12.500000 5.000000 # O WAT
422 141 1 0.423800 9.133000 12.500000 5.577000 # H WAT
423 141 1 0.423800 7.500000 12.500000 5.577000 # H WAT
424 142 2 -0.847600 8.316000 12.500000 7.500000 # O WAT
425 142 1 0.423800 9.133000 12.500000 8.077000 # H WAT
426 142 1 0.423800 7.500000 12.500000 8.077000 # H WAT
427 143 2 -0.847600 8.316000 12.500000 10.000000 # O WAT
428 143 1 0.423800 9.133000 12.500000 10.577000 # H WAT
429 143 1 0.423800 7.500000 12.500000 10.577000 # H WAT
430 144 2 -0.847600 8.316000 12.500000 12.500000 # O WAT
431 144 1 0.423800 9.133000 12.500000 13.077000 # H WAT
432 144 1 0.423800 7.500000 12.500000 13.077000 # H WAT
433 145 2 -0.847600 10.816000 0.000000 0.000000 # O WAT
434 145 1 0.423800 11.633000 0.000000 0.577000 # H WAT
435 145 1 0.423800 10.000000 0.000000 0.577000 # H WAT
436 146 2 -0.847600 10.816000 0.000000 2.500000 # O WAT
437 146 1 0.423800 11.633000 0.000000 3.077000 # H WAT
438 146 1 0.423800 10.000000 0.000000 3.077000 # H WAT
439 147 2 -0.847600 10.816000 0.000000 5.000000 # O WAT
440 147 1 0.423800 11.633000 0.000000 5.577000 # H WAT
441 147 1 0.423800 10.000000 0.000000 5.577000 # H WAT
442 148 2 -0.847600 10.816000 0.000000 7.500000 # O WAT
443 148 1 0.423800 11.633000 0.000000 8.077000 # H WAT
444 148 1 0.423800 10.000000 0.000000 8.077000 # H WAT
445 149 2 -0.847600 10.816000 0.000000 10.000000 # O WAT
446 149 1 0.423800 11.633000 0.000000 10.577000 # H WAT
447 149 1 0.423800 10.000000 0.000000 10.577000 # H WAT
448 150 2 -0.847600 10.816000 0.000000 12.500000 # O WAT
449 150 1 0.423800 11.633000 0.000000 13.077000 # H WAT
450 150 1 0.423800 10.000000 0.000000 13.077000 # H WAT
451 151 2 -0.847600 10.816000 2.500000 0.000000 # O WAT
452 151 1 0.423800 11.633000 2.500000 0.577000 # H WAT
453 151 1 0.423800 10.000000 2.500000 0.577000 # H WAT
454 152 2 -0.847600 10.816000 2.500000 2.500000 # O WAT
455 152 1 0.423800 11.633000 2.500000 3.077000 # H WAT
456 152 1 0.423800 10.000000 2.500000 3.077000 # H WAT
457 153 2 -0.847600 10.816000 2.500000 5.000000 # O WAT
458 153 1 0.423800 11.633000 2.500000 5.577000 # H WAT
459 153 1 0.423800 10.000000 2.500000 5.577000 # H WAT
460 154 2 -0.847600 10.816000 2.500000 7.500000 # O WAT
461 154 1 0.423800 11.633000 2.500000 8.077000 # H WAT
462 154 1 0.423800 10.000000 2.500000 8.077000 # H WAT
463 155 2 -0.847600 10.816000 2.500000 10.000000 # O WAT
464 155 1 0.423800 11.633000 2.500000 10.577000 # H WAT
465 155 1 0.423800 10.000000 2.500000 10.577000 # H WAT
466 156 2 -0.847600 10.816000 2.500000 12.500000 # O WAT
467 156 1 0.423800 11.633000 2.500000 13.077000 # H WAT
468 156 1 0.423800 10.000000 2.500000 13.077000 # H WAT
469 157 2 -0.847600 10.816000 5.000000 0.000000 # O WAT
470 157 1 0.423800 11.633000 5.000000 0.577000 # H WAT
471 157 1 0.423800 10.000000 5.000000 0.577000 # H WAT
472 158 2 -0.847600 10.816000 5.000000 2.500000 # O WAT
473 158 1 0.423800 11.633000 5.000000 3.077000 # H WAT
474 158 1 0.423800 10.000000 5.000000 3.077000 # H WAT
475 159 2 -0.847600 10.816000 5.000000 5.000000 # O WAT
476 159 1 0.423800 11.633000 5.000000 5.577000 # H WAT
477 159 1 0.423800 10.000000 5.000000 5.577000 # H WAT
478 160 2 -0.847600 10.816000 5.000000 7.500000 # O WAT
479 160 1 0.423800 11.633000 5.000000 8.077000 # H WAT
480 160 1 0.423800 10.000000 5.000000 8.077000 # H WAT
481 161 2 -0.847600 10.816000 5.000000 10.000000 # O WAT
482 161 1 0.423800 11.633000 5.000000 10.577000 # H WAT
483 161 1 0.423800 10.000000 5.000000 10.577000 # H WAT
484 162 2 -0.847600 10.816000 5.000000 12.500000 # O WAT
485 162 1 0.423800 11.633000 5.000000 13.077000 # H WAT
486 162 1 0.423800 10.000000 5.000000 13.077000 # H WAT
487 163 2 -0.847600 10.816000 7.500000 0.000000 # O WAT
488 163 1 0.423800 11.633000 7.500000 0.577000 # H WAT
489 163 1 0.423800 10.000000 7.500000 0.577000 # H WAT
490 164 2 -0.847600 10.816000 7.500000 2.500000 # O WAT
491 164 1 0.423800 11.633000 7.500000 3.077000 # H WAT
492 164 1 0.423800 10.000000 7.500000 3.077000 # H WAT
493 165 2 -0.847600 10.816000 7.500000 5.000000 # O WAT
494 165 1 0.423800 11.633000 7.500000 5.577000 # H WAT
495 165 1 0.423800 10.000000 7.500000 5.577000 # H WAT
496 166 2 -0.847600 10.816000 7.500000 7.500000 # O WAT
497 166 1 0.423800 11.633000 7.500000 8.077000 # H WAT
498 166 1 0.423800 10.000000 7.500000 8.077000 # H WAT
499 167 2 -0.847600 10.816000 7.500000 10.000000 # O WAT
500 167 1 0.423800 11.633000 7.500000 10.577000 # H WAT
501 167 1 0.423800 10.000000 7.500000 10.577000 # H WAT
502 168 2 -0.847600 10.816000 7.500000 12.500000 # O WAT
503 168 1 0.423800 11.633000 7.500000 13.077000 # H WAT
504 168 1 0.423800 10.000000 7.500000 13.077000 # H WAT
505 169 2 -0.847600 10.816000 10.000000 0.000000 # O WAT
506 169 1 0.423800 11.633000 10.000000 0.577000 # H WAT
507 169 1 0.423800 10.000000 10.000000 0.577000 # H WAT
508 170 2 -0.847600 10.816000 10.000000 2.500000 # O WAT
509 170 1 0.423800 11.633000 10.000000 3.077000 # H WAT
510 170 1 0.423800 10.000000 10.000000 3.077000 # H WAT
511 171 2 -0.847600 10.816000 10.000000 5.000000 # O WAT
512 171 1 0.423800 11.633000 10.000000 5.577000 # H WAT
513 171 1 0.423800 10.000000 10.000000 5.577000 # H WAT
514 172 2 -0.847600 10.816000 10.000000 7.500000 # O WAT
515 172 1 0.423800 11.633000 10.000000 8.077000 # H WAT
516 172 1 0.423800 10.000000 10.000000 8.077000 # H WAT
517 173 2 -0.847600 10.816000 10.000000 10.000000 # O WAT
518 173 1 0.423800 11.633000 10.000000 10.577000 # H WAT
519 173 1 0.423800 10.000000 10.000000 10.577000 # H WAT
520 174 2 -0.847600 10.816000 10.000000 12.500000 # O WAT
521 174 1 0.423800 11.633000 10.000000 13.077000 # H WAT
522 174 1 0.423800 10.000000 10.000000 13.077000 # H WAT
523 175 2 -0.847600 10.816000 12.500000 0.000000 # O WAT
524 175 1 0.423800 11.633000 12.500000 0.577000 # H WAT
525 175 1 0.423800 10.000000 12.500000 0.577000 # H WAT
526 176 2 -0.847600 10.816000 12.500000 2.500000 # O WAT
527 176 1 0.423800 11.633000 12.500000 3.077000 # H WAT
528 176 1 0.423800 10.000000 12.500000 3.077000 # H WAT
529 177 2 -0.847600 10.816000 12.500000 5.000000 # O WAT
530 177 1 0.423800 11.633000 12.500000 5.577000 # H WAT
531 177 1 0.423800 10.000000 12.500000 5.577000 # H WAT
532 178 2 -0.847600 10.816000 12.500000 7.500000 # O WAT
533 178 1 0.423800 11.633000 12.500000 8.077000 # H WAT
534 178 1 0.423800 10.000000 12.500000 8.077000 # H WAT
535 179 2 -0.847600 10.816000 12.500000 10.000000 # O WAT
536 179 1 0.423800 11.633000 12.500000 10.577000 # H WAT
537 179 1 0.423800 10.000000 12.500000 10.577000 # H WAT
538 180 2 -0.847600 10.816000 12.500000 12.500000 # O WAT
539 180 1 0.423800 11.633000 12.500000 13.077000 # H WAT
540 180 1 0.423800 10.000000 12.500000 13.077000 # H WAT
541 181 2 -0.847600 13.316000 0.000000 0.000000 # O WAT
542 181 1 0.423800 14.133000 0.000000 0.577000 # H WAT
543 181 1 0.423800 12.500000 0.000000 0.577000 # H WAT