LAMMPS data file. CGCMM style. atom_style full generated by VMD/TopoTools v1.5 on Tue May 19 17:14:21 AEST 2015
 512 atoms
 0 bonds
 0 angles
 0 dihedrals
 0 impropers
 2 atom types
 0 bond types
 0 angle types
 0 dihedral types
 0 improper types
 -2.851000 21.983000  xlo xhi
 -3.667000 21.167000  ylo yhi
 -3.667000 21.167000  zlo zhi

# Pair Coeffs
#
# 1  A
# 2  B

 Masses

 1 15.999400 # A
 2 15.999400 # B

 Atoms

1 1 1 0.000000 0.816000 0.000000 0.000000 # A WAT
2 2 1 0.000000 0.816000 0.000000 2.500000 # A WAT
3 3 1 0.000000 0.816000 0.000000 5.000000 # A WAT
4 4 1 0.000000 0.816000 0.000000 7.500000 # A WAT
5 5 1 0.000000 0.816000 0.000000 10.000000 # A WAT
6 6 1 0.000000 0.816000 0.000000 12.500000 # A WAT
7 7 1 0.000000 0.816000 0.000000 15.000000 # A WAT
8 8 1 0.000000 0.816000 0.000000 17.500000 # A WAT
9 9 1 0.000000 0.816000 2.500000 0.000000 # A WAT
10 10 1 0.000000 0.816000 2.500000 2.500000 # A WAT
11 11 1 0.000000 0.816000 2.500000 5.000000 # A WAT
12 12 1 0.000000 0.816000 2.500000 7.500000 # A WAT
13 13 1 0.000000 0.816000 2.500000 10.000000 # A WAT
14 14 1 0.000000 0.816000 2.500000 12.500000 # A WAT
15 15 1 0.000000 0.816000 2.500000 15.000000 # A WAT
16 16 1 0.000000 0.816000 2.500000 17.500000 # A WAT
17 17 1 0.000000 0.816000 5.000000 0.000000 # A WAT
18 18 1 0.000000 0.816000 5.000000 2.500000 # A WAT
19 19 1 0.000000 0.816000 5.000000 5.000000 # A WAT
20 20 1 0.000000 0.816000 5.000000 7.500000 # A WAT
21 21 1 0.000000 0.816000 5.000000 10.000000 # A WAT
22 22 1 0.000000 0.816000 5.000000 12.500000 # A WAT
23 23 1 0.000000 0.816000 5.000000 15.000000 # A WAT
24 24 1 0.000000 0.816000 5.000000 17.500000 # A WAT
25 25 1 0.000000 0.816000 7.500000 0.000000 # A WAT
26 26 1 0.000000 0.816000 7.500000 2.500000 # A WAT
27 27 1 0.000000 0.816000 7.500000 5.000000 # A WAT
28 28 1 0.000000 0.816000 7.500000 7.500000 # A WAT
29 29 1 0.000000 0.816000 7.500000 10.000000 # A WAT
30 30 1 0.000000 0.816000 7.500000 12.500000 # A WAT
31 31 1 0.000000 0.816000 7.500000 15.000000 # A WAT
32 32 1 0.000000 0.816000 7.500000 17.500000 # A WAT
33 33 1 0.000000 0.816000 10.000000 0.000000 # A WAT
34 34 1 0.000000 0.816000 10.000000 2.500000 # A WAT
35 35 1 0.000000 0.816000 10.000000 5.000000 # A WAT
36 36 1 0.000000 0.816000 10.000000 7.500000 # A WAT
37 37 1 0.000000 0.816000 10.000000 10.000000 # A WAT
38 38 1 0.000000 0.816000 10.000000 12.500000 # A WAT
39 39 1 0.000000 0.816000 10.000000 15.000000 # A WAT
40 40 1 0.000000 0.816000 10.000000 17.500000 # A WAT
41 41 1 0.000000 0.816000 12.500000 0.000000 # A WAT
42 42 1 0.000000 0.816000 12.500000 2.500000 # A WAT
43 43 1 0.000000 0.816000 12.500000 5.000000 # A WAT
44 44 1 0.000000 0.816000 12.500000 7.500000 # A WAT
45 45 1 0.000000 0.816000 12.500000 10.000000 # A WAT
46 46 1 0.000000 0.816000 12.500000 12.500000 # A WAT
47 47 1 0.000000 0.816000 12.500000 15.000000 # A WAT
48 48 1 0.000000 0.816000 12.500000 17.500000 # A WAT
49 49 1 0.000000 0.816000 15.000000 0.000000 # A WAT
50 50 1 0.000000 0.816000 15.000000 2.500000 # A WAT
51 51 1 0.000000 0.816000 15.000000 5.000000 # A WAT
52 52 1 0.000000 0.816000 15.000000 7.500000 # A WAT
53 53 1 0.000000 0.816000 15.000000 10.000000 # A WAT
54 54 1 0.000000 0.816000 15.000000 12.500000 # A WAT
55 55 1 0.000000 0.816000 15.000000 15.000000 # A WAT
56 56 1 0.000000 0.816000 15.000000 17.500000 # A WAT
57 57 1 0.000000 0.816000 17.500000 0.000000 # A WAT
58 58 1 0.000000 0.816000 17.500000 2.500000 # A WAT
59 59 1 0.000000 0.816000 17.500000 5.000000 # A WAT
60 60 1 0.000000 0.816000 17.500000 7.500000 # A WAT
61 61 1 0.000000 0.816000 17.500000 10.000000 # A WAT
62 62 1 0.000000 0.816000 17.500000 12.500000 # A WAT
63 63 1 0.000000 0.816000 17.500000 15.000000 # A WAT
64 64 1 0.000000 0.816000 17.500000 17.500000 # A WAT
65 65 1 0.000000 3.316000 0.000000 0.000000 # A WAT
66 66 1 0.000000 3.316000 0.000000 2.500000 # A WAT
67 67 1 0.000000 3.316000 0.000000 5.000000 # A WAT
68 68 1 0.000000 3.316000 0.000000 7.500000 # A WAT
69 69 1 0.000000 3.316000 0.000000 10.000000 # A WAT
70 70 1 0.000000 3.316000 0.000000 12.500000 # A WAT
71 71 1 0.000000 3.316000 0.000000 15.000000 # A WAT
72 72 1 0.000000 3.316000 0.000000 17.500000 # A WAT
73 73 1 0.000000 3.316000 2.500000 0.000000 # A WAT
74 74 1 0.000000 3.316000 2.500000 2.500000 # A WAT
75 75 1 0.000000 3.316000 2.500000 5.000000 # A WAT
76 76 1 0.000000 3.316000 2.500000 7.500000 # A WAT
77 77 1 0.000000 3.316000 2.500000 10.000000 # A WAT
78 78 1 0.000000 3.316000 2.500000 12.500000 # A WAT
79 79 1 0.000000 3.316000 2.500000 15.000000 # A WAT
80 80 1 0.000000 3.316000 2.500000 17.500000 # A WAT
81 81 1 0.000000 3.316000 5.000000 0.000000 # A WAT
82 82 1 0.000000 3.316000 5.000000 2.500000 # A WAT
83 83 1 0.000000 3.316000 5.000000 5.000000 # A WAT
84 84 1 0.000000 3.316000 5.000000 7.500000 # A WAT
85 85 1 0.000000 3.316000 5.000000 10.000000 # A WAT
86 86 1 0.000000 3.316000 5.000000 12.500000 # A WAT
87 87 2 0.000000 3.316000 5.000000 15.000000 # B WAT
88 88 2 0.000000 3.316000 5.000000 17.500000 # B WAT
89 89 2 0.000000 3.316000 7.500000 0.000000 # B WAT
90 90 2 0.000000 3.316000 7.500000 2.500000 # B WAT
91 91 2 0.000000 3.316000 7.500000 5.000000 # B WAT
92 92 2 0.000000 3.316000 7.500000 7.500000 # B WAT
93 93 2 0.000000 3.316000 7.500000 10.000000 # B WAT
94 94 2 0.000000 3.316000 7.500000 12.500000 # B WAT
95 95 2 0.000000 3.316000 7.500000 15.000000 # B WAT
96 96 2 0.000000 3.316000 7.500000 17.500000 # B WAT
97 97 2 0.000000 3.316000 10.000000 0.000000 # B WAT
98 98 2 0.000000 3.316000 10.000000 2.500000 # B WAT
99 99 2 0.000000 3.316000 10.000000 5.000000 # B WAT
100 100 2 0.000000 3.316000 10.000000 7.500000 # B WAT
101 101 2 0.000000 3.316000 10.000000 10.000000 # B WAT
102 102 2 0.000000 3.316000 10.000000 12.500000 # B WAT
103 103 2 0.000000 3.316000 10.000000 15.000000 # B WAT
104 104 2 0.000000 3.316000 10.000000 17.500000 # B WAT
105 105 2 0.000000 3.316000 12.500000 0.000000 # B WAT
106 106 2 0.000000 3.316000 12.500000 2.500000 # B WAT
107 107 2 0.000000 3.316000 12.500000 5.000000 # B WAT
108 108 2 0.000000 3.316000 12.500000 7.500000 # B WAT
109 109 2 0.000000 3.316000 12.500000 10.000000 # B WAT
110 110 2 0.000000 3.316000 12.500000 12.500000 # B WAT
111 111 2 0.000000 3.316000 12.500000 15.000000 # B WAT
112 112 2 0.000000 3.316000 12.500000 17.500000 # B WAT
113 113 2 0.000000 3.316000 15.000000 0.000000 # B WAT
114 114 2 0.000000 3.316000 15.000000 2.500000 # B WAT
115 115 2 0.000000 3.316000 15.000000 5.000000 # B WAT
116 116 2 0.000000 3.316000 15.000000 7.500000 # B WAT
117 117 2 0.000000 3.316000 15.000000 10.000000 # B WAT
118 118 2 0.000000 3.316000 15.000000 12.500000 # B WAT
119 119 2 0.000000 3.316000 15.000000 15.000000 # B WAT
120 120 2 0.000000 3.316000 15.000000 17.500000 # B WAT
121 121 2 0.000000 3.316000 17.500000 0.000000 # B WAT
122 122 2 0.000000 3.316000 17.500000 2.500000 # B WAT
123 123 2 0.000000 3.316000 17.500000 5.000000 # B WAT
124 124 2 0.000000 3.316000 17.500000 7.500000 # B WAT
125 125 2 0.000000 3.316000 17.500000 10.000000 # B WAT
126 126 2 0.000000 3.316000 17.500000 12.500000 # B WAT
127 127 2 0.000000 3.316000 17.500000 15.000000 # B WAT
128 128 2 0.000000 3.316000 17.500000 17.500000 # B WAT
129 129 2 0.000000 5.816000 0.000000 0.000000 # B WAT
130 130 2 0.000000 5.816000 0.000000 2.500000 # B WAT
131 131 2 0.000000 5.816000 0.000000 5.000000 # B WAT
132 132 2 0.000000 5.816000 0.000000 7.500000 # B WAT
133 133 2 0.000000 5.816000 0.000000 10.000000 # B WAT
134 134 2 0.000000 5.816000 0.000000 12.500000 # B WAT
135 135 2 0.000000 5.816000 0.000000 15.000000 # B WAT
136 136 2 0.000000 5.816000 0.000000 17.500000 # B WAT
137 137 2 0.000000 5.816000 2.500000 0.000000 # B WAT
138 138 2 0.000000 5.816000 2.500000 2.500000 # B WAT
139 139 2 0.000000 5.816000 2.500000 5.000000 # B WAT
140 140 2 0.000000 5.816000 2.500000 7.500000 # B WAT
141 141 2 0.000000 5.816000 2.500000 10.000000 # B WAT
142 142 2 0.000000 5.816000 2.500000 12.500000 # B WAT
143 143 2 0.000000 5.816000 2.500000 15.000000 # B WAT
144 144 2 0.000000 5.816000 2.500000 17.500000 # B WAT
145 145 2 0.000000 5.816000 5.000000 0.000000 # B WAT
146 146 2 0.000000 5.816000 5.000000 2.500000 # B WAT
147 147 2 0.000000 5.816000 5.000000 5.000000 # B WAT
148 148 2 0.000000 5.816000 5.000000 7.500000 # B WAT
149 149 2 0.000000 5.816000 5.000000 10.000000 # B WAT
150 150 2 0.000000 5.816000 5.000000 12.500000 # B WAT
151 151 2 0.000000 5.816000 5.000000 15.000000 # B WAT
152 152 2 0.000000 5.816000 5.000000 17.500000 # B WAT
153 153 2 0.000000 5.816000 7.500000 0.000000 # B WAT
154 154 2 0.000000 5.816000 7.500000 2.500000 # B WAT
155 155 2 0.000000 5.816000 7.500000 5.000000 # B WAT
156 156 2 0.000000 5.816000 7.500000 7.500000 # B WAT
157 157 2 0.000000 5.816000 7.500000 10.000000 # B WAT
158 158 2 0.000000 5.816000 7.500000 12.500000 # B WAT
159 159 2 0.000000 5.816000 7.500000 15.000000 # B WAT
160 160 2 0.000000 5.816000 7.500000 17.500000 # B WAT
161 161 2 0.000000 5.816000 10.000000 0.000000 # B WAT
162 162 2 0.000000 5.816000 10.000000 2.500000 # B WAT
163 163 2 0.000000 5.816000 10.000000 5.000000 # B WAT
164 164 2 0.000000 5.816000 10.000000 7.500000 # B WAT
165 165 2 0.000000 5.816000 10.000000 10.000000 # B WAT
166 166 2 0.000000 5.816000 10.000000 12.500000 # B WAT
167 167 2 0.000000 5.816000 10.000000 15.000000 # B WAT
168 168 2 0.000000 5.816000 10.000000 17.500000 # B WAT
169 169 2 0.000000 5.816000 12.500000 0.000000 # B WAT
170 170 2 0.000000 5.816000 12.500000 2.500000 # B WAT
171 171 2 0.000000 5.816000 12.500000 5.000000 # B WAT
172 172 2 0.000000 5.816000 12.500000 7.500000 # B WAT
173 173 2 0.000000 5.816000 12.500000 10.000000 # B WAT
174 174 2 0.000000 5.816000 12.500000 12.500000 # B WAT
175 175 2 0.000000 5.816000 12.500000 15.000000 # B WAT
176 176 2 0.000000 5.816000 12.500000 17.500000 # B WAT
177 177 2 0.000000 5.816000 15.000000 0.000000 # B WAT
178 178 2 0.000000 5.816000 15.000000 2.500000 # B WAT
179 179 2 0.000000 5.816000 15.000000 5.000000 # B WAT
180 180 2 0.000000 5.816000 15.000000 7.500000 # B WAT
181 181 2 0.000000 5.816000 15.000000 10.000000 # B WAT
182 182 2 0.000000 5.816000 15.000000 12.500000 # B WAT
183 183 2 0.000000 5.816000 15.000000 15.000000 # B WAT
184 184 2 0.000000 5.816000 15.000000 17.500000 # B WAT
185 185 2 0.000000 5.816000 17.500000 0.000000 # B WAT
186 186 2 0.000000 5.816000 17.500000 2.500000 # B WAT
187 187 2 0.000000 5.816000 17.500000 5.000000 # B WAT
188 188 2 0.000000 5.816000 17.500000 7.500000 # B WAT
189 189 2 0.000000 5.816000 17.500000 10.000000 # B WAT
190 190 2 0.000000 5.816000 17.500000 12.500000 # B WAT
191 191 2 0.000000 5.816000 17.500000 15.000000 # B WAT
192 192 2 0.000000 5.816000 17.500000 17.500000 # B WAT
193 193 2 0.000000 8.316000 0.000000 0.000000 # B WAT
194 194 2 0.000000 8.316000 0.000000 2.500000 # B WAT
195 195 2 0.000000 8.316000 0.000000 5.000000 # B WAT
196 196 2 0.000000 8.316000 0.000000 7.500000 # B WAT
197 197 2 0.000000 8.316000 0.000000 10.000000 # B WAT
198 198 2 0.000000 8.316000 0.000000 12.500000 # B WAT
199 199 2 0.000000 8.316000 0.000000 15.000000 # B WAT
200 200 2 0.000000 8.316000 0.000000 17.500000 # B WAT
201 201 2 0.000000 8.316000 2.500000 0.000000 # B WAT
202 202 2 0.000000 8.316000 2.500000 2.500000 # B WAT
203 203 2 0.000000 8.316000 2.500000 5.000000 # B WAT
204 204 2 0.000000 8.316000 2.500000 7.500000 # B WAT
205 205 2 0.000000 8.316000 2.500000 10.000000 # B WAT
206 206 2 0.000000 8.316000 2.500000 12.500000 # B WAT
207 207 2 0.000000 8.316000 2.500000 15.000000 # B WAT
208 208 2 0.000000 8.316000 2.500000 17.500000 # B WAT
209 209 2 0.000000 8.316000 5.000000 0.000000 # B WAT
210 210 2 0.000000 8.316000 5.000000 2.500000 # B WAT
211 211 2 0.000000 8.316000 5.000000 5.000000 # B WAT
212 212 2 0.000000 8.316000 5.000000 7.500000 # B WAT
213 213 2 0.000000 8.316000 5.000000 10.000000 # B WAT
214 214 2 0.000000 8.316000 5.000000 12.500000 # B WAT
215 215 2 0.000000 8.316000 5.000000 15.000000 # B WAT
216 216 2 0.000000 8.316000 5.000000 17.500000 # B WAT
217 217 2 0.000000 8.316000 7.500000 0.000000 # B WAT
218 218 2 0.000000 8.316000 7.500000 2.500000 # B WAT
219 219 2 0.000000 8.316000 7.500000 5.000000 # B WAT
220 220 2 0.000000 8.316000 7.500000 7.500000 # B WAT
221 221 2 0.000000 8.316000 7.500000 10.000000 # B WAT
222 222 2 0.000000 8.316000 7.500000 12.500000 # B WAT
223 223 2 0.000000 8.316000 7.500000 15.000000 # B WAT
224 224 2 0.000000 8.316000 7.500000 17.500000 # B WAT
225 225 2 0.000000 8.316000 10.000000 0.000000 # B WAT
226 226 2 0.000000 8.316000 10.000000 2.500000 # B WAT
227 227 2 0.000000 8.316000 10.000000 5.000000 # B WAT
228 228 2 0.000000 8.316000 10.000000 7.500000 # B WAT
229 229 2 0.000000 8.316000 10.000000 10.000000 # B WAT
230 230 2 0.000000 8.316000 10.000000 12.500000 # B WAT
231 231 2 0.000000 8.316000 10.000000 15.000000 # B WAT
232 232 2 0.000000 8.316000 10.000000 17.500000 # B WAT
233 233 2 0.000000 8.316000 12.500000 0.000000 # B WAT
234 234 2 0.000000 8.316000 12.500000 2.500000 # B WAT
235 235 2 0.000000 8.316000 12.500000 5.000000 # B WAT
236 236 2 0.000000 8.316000 12.500000 7.500000 # B WAT
237 237 2 0.000000 8.316000 12.500000 10.000000 # B WAT
238 238 2 0.000000 8.316000 12.500000 12.500000 # B WAT
239 239 2 0.000000 8.316000 12.500000 15.000000 # B WAT
240 240 2 0.000000 8.316000 12.500000 17.500000 # B WAT
241 241 2 0.000000 8.316000 15.000000 0.000000 # B WAT
242 242 2 0.000000 8.316000 15.000000 2.500000 # B WAT
243 243 2 0.000000 8.316000 15.000000 5.000000 # B WAT
244 244 2 0.000000 8.316000 15.000000 7.500000 # B WAT
245 245 2 0.000000 8.316000 15.000000 10.000000 # B WAT
246 246 2 0.000000 8.316000 15.000000 12.500000 # B WAT
247 247 2 0.000000 8.316000 15.000000 15.000000 # B WAT
248 248 2 0.000000 8.316000 15.000000 17.500000 # B WAT
249 249 2 0.000000 8.316000 17.500000 0.000000 # B WAT
250 250 2 0.000000 8.316000 17.500000 2.500000 # B WAT
251 251 2 0.000000 8.316000 17.500000 5.000000 # B WAT
252 252 2 0.000000 8.316000 17.500000 7.500000 # B WAT
253 253 2 0.000000 8.316000 17.500000 10.000000 # B WAT
254 254 2 0.000000 8.316000 17.500000 12.500000 # B WAT
255 255 2 0.000000 8.316000 17.500000 15.000000 # B WAT
256 256 2 0.000000 8.316000 17.500000 17.500000 # B WAT
257 257 2 0.000000 10.816000 0.000000 0.000000 # B WAT
258 258 2 0.000000 10.816000 0.000000 2.500000 # B WAT
259 259 2 0.000000 10.816000 0.000000 5.000000 # B WAT
260 260 2 0.000000 10.816000 0.000000 7.500000 # B WAT
261 261 2 0.000000 10.816000 0.000000 10.000000 # B WAT
262 262 2 0.000000 10.816000 0.000000 12.500000 # B WAT
263 263 2 0.000000 10.816000 0.000000 15.000000 # B WAT
264 264 2 0.000000 10.816000 0.000000 17.500000 # B WAT
265 265 2 0.000000 10.816000 2.500000 0.000000 # B WAT
266 266 2 0.000000 10.816000 2.500000 2.500000 # B WAT
267 267 2 0.000000 10.816000 2.500000 5.000000 # B WAT
268 268 2 0.000000 10.816000 2.500000 7.500000 # B WAT
269 269 2 0.000000 10.816000 2.500000 10.000000 # B WAT
270 270 2 0.000000 10.816000 2.500000 12.500000 # B WAT
271 271 2 0.000000 10.816000 2.500000 15.000000 # B WAT
272 272 2 0.000000 10.816000 2.500000 17.500000 # B WAT
273 273 2 0.000000 10.816000 5.000000 0.000000 # B WAT
274 274 2 0.000000 10.816000 5.000000 2.500000 # B WAT
275 275 2 0.000000 10.816000 5.000000 5.000000 # B WAT
276 276 2 0.000000 10.816000 5.000000 7.500000 # B WAT
277 277 2 0.000000 10.816000 5.000000 10.000000 # B WAT
278 278 2 0.000000 10.816000 5.000000 12.500000 # B WAT
279 279 2 0.000000 10.816000 5.000000 15.000000 # B WAT
280 280 2 0.000000 10.816000 5.000000 17.500000 # B WAT
281 281 2 0.000000 10.816000 7.500000 0.000000 # B WAT
282 282 2 0.000000 10.816000 7.500000 2.500000 # B WAT
283 283 2 0.000000 10.816000 7.500000 5.000000 # B WAT
284 284 2 0.000000 10.816000 7.500000 7.500000 # B WAT
285 285 2 0.000000 10.816000 7.500000 10.000000 # B WAT
286 286 2 0.000000 10.816000 7.500000 12.500000 # B WAT
287 287 2 0.000000 10.816000 7.500000 15.000000 # B WAT
288 288 2 0.000000 10.816000 7.500000 17.500000 # B WAT
289 289 2 0.000000 10.816000 10.000000 0.000000 # B WAT
290 290 2 0.000000 10.816000 10.000000 2.500000 # B WAT
291 291 2 0.000000 10.816000 10.000000 5.000000 # B WAT
292 292 2 0.000000 10.816000 10.000000 7.500000 # B WAT
293 293 2 0.000000 10.816000 10.000000 10.000000 # B WAT
294 294 2 0.000000 10.816000 10.000000 12.500000 # B WAT
295 295 2 0.000000 10.816000 10.000000 15.000000 # B WAT
296 296 2 0.000000 10.816000 10.000000 17.500000 # B WAT
297 297 2 0.000000 10.816000 12.500000 0.000000 # B WAT
298 298 2 0.000000 10.816000 12.500000 2.500000 # B WAT
299 299 2 0.000000 10.816000 12.500000 5.000000 # B WAT
300 300 2 0.000000 10.816000 12.500000 7.500000 # B WAT
301 301 2 0.000000 10.816000 12.500000 10.000000 # B WAT
302 302 2 0.000000 10.816000 12.500000 12.500000 # B WAT
303 303 2 0.000000 10.816000 12.500000 15.000000 # B WAT
304 304 2 0.000000 10.816000 12.500000 17.500000 # B WAT
305 305 2 0.000000 10.816000 15.000000 0.000000 # B WAT
306 306 2 0.000000 10.816000 15.000000 2.500000 # B WAT
307 307 2 0.000000 10.816000 15.000000 5.000000 # B WAT
308 308 2 0.000000 10.816000 15.000000 7.500000 # B WAT
309 309 2 0.000000 10.816000 15.000000 10.000000 # B WAT
310 310 2 0.000000 10.816000 15.000000 12.500000 # B WAT
311 311 2 0.000000 10.816000 15.000000 15.000000 # B WAT
312 312 2 0.000000 10.816000 15.000000 17.500000 # B WAT
313 313 2 0.000000 10.816000 17.500000 0.000000 # B WAT
314 314 2 0.000000 10.816000 17.500000 2.500000 # B WAT
315 315 2 0.000000 10.816000 17.500000 5.000000 # B WAT
316 316 2 0.000000 10.816000 17.500000 7.500000 # B WAT
317 317 2 0.000000 10.816000 17.500000 10.000000 # B WAT
318 318 2 0.000000 10.816000 17.500000 12.500000 # B WAT
319 319 2 0.000000 10.816000 17.500000 15.000000 # B WAT
320 320 2 0.000000 10.816000 17.500000 17.500000 # B WAT
321 321 2 0.000000 13.316000 0.000000 0.000000 # B WAT
322 322 2 0.000000 13.316000 0.000000 2.500000 # B WAT
323 323 2 0.000000 13.316000 0.000000 5.000000 # B WAT
324 324 2 0.000000 13.316000 0.000000 7.500000 # B WAT
325 325 2 0.000000 13.316000 0.000000 10.000000 # B WAT
326 326 2 0.000000 13.316000 0.000000 12.500000 # B WAT
327 327 2 0.000000 13.316000 0.000000 15.000000 # B WAT
328 328 2 0.000000 13.316000 0.000000 17.500000 # B WAT
329 329 2 0.000000 13.316000 2.500000 0.000000 # B WAT
330 330 2 0.000000 13.316000 2.500000 2.500000 # B WAT
331 331 2 0.000000 13.316000 2.500000 5.000000 # B WAT
332 332 2 0.000000 13.316000 2.500000 7.500000 # B WAT
333 333 2 0.000000 13.316000 2.500000 10.000000 # B WAT
334 334 2 0.000000 13.316000 2.500000 12.500000 # B WAT
335 335 2 0.000000 13.316000 2.500000 15.000000 # B WAT
336 336 2 0.000000 13.316000 2.500000 17.500000 # B WAT
337 337 2 0.000000 13.316000 5.000000 0.000000 # B WAT
338 338 2 0.000000 13.316000 5.000000 2.500000 # B WAT
339 339 2 0.000000 13.316000 5.000000 5.000000 # B WAT
340 340 2 0.000000 13.316000 5.000000 7.500000 # B WAT
341 341 2 0.000000 13.316000 5.000000 10.000000 # B WAT
342 342 2 0.000000 13.316000 5.000000 12.500000 # B WAT
343 343 2 0.000000 13.316000 5.000000 15.000000 # B WAT
344 344 2 0.000000 13.316000 5.000000 17.500000 # B WAT
345 345 2 0.000000 13.316000 7.500000 0.000000 # B WAT
346 346 2 0.000000 13.316000 7.500000 2.500000 # B WAT
347 347 2 0.000000 13.316000 7.500000 5.000000 # B WAT
348 348 2 0.000000 13.316000 7.500000 7.500000 # B WAT
349 349 2 0.000000 13.316000 7.500000 10.000000 # B WAT
350 350 2 0.000000 13.316000 7.500000 12.500000 # B WAT
351 351 2 0.000000 13.316000 7.500000 15.000000 # B WAT
352 352 2 0.000000 13.316000 7.500000 17.500000 # B WAT
353 353 2 0.000000 13.316000 10.000000 0.000000 # B WAT
354 354 2 0.000000 13.316000 10.000000 2.500000 # B WAT
355 355 2 0.000000 13.316000 10.000000 5.000000 # B WAT
356 356 2 0.000000 13.316000 10.000000 7.500000 # B WAT
357 357 2 0.000000 13.316000 10.000000 10.000000 # B WAT
358 358 2 0.000000 13.316000 10.000000 12.500000 # B WAT
359 359 2 0.000000 13.316000 10.000000 15.000000 # B WAT
360 360 2 0.000000 13.316000 10.000000 17.500000 # B WAT
361 361 2 0.000000 13.316000 12.500000 0.000000 # B WAT
362 362 2 0.000000 13.316000 12.500000 2.500000 # B WAT
363 363 2 0.000000 13.316000 12.500000 5.000000 # B WAT
364 364 2 0.000000 13.316000 12.500000 7.500000 # B WAT
365 365 2 0.000000 13.316000 12.500000 10.000000 # B WAT
366 366 2 0.000000 13.316000 12.500000 12.500000 # B WAT
367 367 2 0.000000 13.316000 12.500000 15.000000 # B WAT
368 368 2 0.000000 13.316000 12.500000 17.500000 # B WAT
369 369 2 0.000000 13.316000 15.000000 0.000000 # B WAT
370 370 2 0.000000 13.316000 15.000000 2.500000 # B WAT
371 371 2 0.000000 13.316000 15.000000 5.000000 # B WAT
372 372 2 0.000000 13.316000 15.000000 7.500000 # B WAT
373 373 2 0.000000 13.316000 15.000000 10.000000 # B WAT
374 374 2 0.000000 13.316000 15.000000 12.500000 # B WAT
375 375 2 0.000000 13.316000 15.000000 15.000000 # B WAT
376 376 2 0.000000 13.316000 15.000000 17.500000 # B WAT
377 377 2 0.000000 13.316000 17.500000 0.000000 # B WAT
378 378 2 0.000000 13.316000 17.500000 2.500000 # B WAT
379 379 2 0.000000 13.316000 17.500000 5.000000 # B WAT
380 380 2 0.000000 13.316000 17.500000 7.500000 # B WAT
381 381 2 0.000000 13.316000 17.500000 10.000000 # B WAT
382 382 2 0.000000 13.316000 17.500000 12.500000 # B WAT
383 383 2 0.000000 13.316000 17.500000 15.000000 # B WAT
384 384 2 0.000000 13.316000 17.500000 17.500000 # B WAT
385 385 2 0.000000 15.816000 0.000000 0.000000 # B WAT
386 386 2 0.000000 15.816000 0.000000 2.500000 # B WAT
387 387 2 0.000000 15.816000 0.000000 5.000000 # B WAT
388 388 2 0.000000 15.816000 0.000000 7.500000 # B WAT
389 389 2 0.000000 15.816000 0.000000 10.000000 # B WAT
390 390 2 0.000000 15.816000 0.000000 12.500000 # B WAT
391 391 2 0.000000 15.816000 0.000000 15.000000 # B WAT
392 392 2 0.000000 15.816000 0.000000 17.500000 # B WAT
393 393 2 0.000000 15.816000 2.500000 0.000000 # B WAT
394 394 2 0.000000 15.816000 2.500000 2.500000 # B WAT
395 395 2 0.000000 15.816000 2.500000 5.000000 # B WAT
396 396 2 0.000000 15.816000 2.500000 7.500000 # B WAT
397 397 2 0.000000 15.816000 2.500000 10.000000 # B WAT
398 398 2 0.000000 15.816000 2.500000 12.500000 # B WAT
399 399 2 0.000000 15.816000 2.500000 15.000000 # B WAT
400 400 2 0.000000 15.816000 2.500000 17.500000 # B WAT
401 401 2 0.000000 15.816000 5.000000 0.000000 # B WAT
402 402 2 0.000000 15.816000 5.000000 2.500000 # B WAT
403 403 2 0.000000 15.816000 5.000000 5.000000 # B WAT
404 404 2 0.000000 15.816000 5.000000 7.500000 # B WAT
405 405 2 0.000000 15.816000 5.000000 10.000000 # B WAT
406 406 2 0.000000 15.816000 5.000000 12.500000 # B WAT
407 407 2 0.000000 15.816000 5.000000 15.000000 # B WAT
408 408 2 0.000000 15.816000 5.000000 17.500000 # B WAT
409 409 2 0.000000 15.816000 7.500000 0.000000 # B WAT
410 410 2 0.000000 15.816000 7.500000 2.500000 # B WAT
411 411 2 0.000000 15.816000 7.500000 5.000000 # B WAT
412 412 2 0.000000 15.816000 7.500000 7.500000 # B WAT
413 413 2 0.000000 15.816000 7.500000 10.000000 # B WAT
414 414 2 0.000000 15.816000 7.500000 12.500000 # B WAT
415 415 2 0.000000 15.816000 7.500000 15.000000 # B WAT
416 416 2 0.000000 15.816000 7.500000 17.500000 # B WAT
417 417 2 0.000000 15.816000 10.000000 0.000000 # B WAT
418 418 2 0.000000 15.816000 10.000000 2.500000 # B WAT
419 419 2 0.000000 15.816000 10.000000 5.000000 # B WAT
420 420 2 0.000000 15.816000 10.000000 7.500000 # B WAT
421 421 2 0.000000 15.816000 10.000000 10.000000 # B WAT
422 422 2 0.000000 15.816000 10.000000 12.500000 # B WAT
423 423 2 0.000000 15.816000 10.000000 15.000000 # B WAT
424 424 2 0.000000 15.816000 10.000000 17.500000 # B WAT
425 425 2 0.000000 15.816000 12.500000 0.000000 # B WAT
426 426 2 0.000000 15.816000 12.500000 2.500000 # B WAT
427 427 2 0.000000 15.816000 12.500000 5.000000 # B WAT
428 428 2 0.000000 15.816000 12.500000 7.500000 # B WAT
429 429 2 0.000000 15.816000 12.500000 10.000000 # B WAT
430 430 2 0.000000 15.816000 12.500000 12.500000 # B WAT
431 431 2 0.000000 15.816000 12.500000 15.000000 # B WAT
432 432 2 0.000000 15.816000 12.500000 17.500000 # B WAT
433 433 2 0.000000 15.816000 15.000000 0.000000 # B WAT
434 434 2 0.000000 15.816000 15.000000 2.500000 # B WAT
435 435 2 0.000000 15.816000 15.000000 5.000000 # B WAT
436 436 2 0.000000 15.816000 15.000000 7.500000 # B WAT
437 437 2 0.000000 15.816000 15.000000 10.000000 # B WAT
438 438 2 0.000000 15.816000 15.000000 12.500000 # B WAT
439 439 2 0.000000 15.816000 15.000000 15.000000 # B WAT
440 440 2 0.000000 15.816000 15.000000 17.500000 # B WAT
441 441 2 0.000000 15.816000 17.500000 0.000000 # B WAT
442 442 2 0.000000 15.816000 17.500000 2.500000 # B WAT
443 443 2 0.000000 15.816000 17.500000 5.000000 # B WAT
444 444 2 0.000000 15.816000 17.500000 7.500000 # B WAT
445 445 2 0.000000 15.816000 17.500000 10.000000 # B WAT
446 446 2 0.000000 15.816000 17.500000 12.500000 # B WAT
447 447 2 0.000000 15.816000 17.500000 15.000000 # B WAT
448 448 2 0.000000 15.816000 17.500000 17.500000 # B WAT
449 449 2 0.000000 18.316000 0.000000 0.000000 # B WAT
450 450 2 0.000000 18.316000 0.000000 2.500000 # B WAT
451 451 2 0.000000 18.316000 0.000000 5.000000 # B WAT
452 452 2 0.000000 18.316000 0.000000 7.500000 # B WAT
453 453 2 0.000000 18.316000 0.000000 10.000000 # B WAT
454 454 2 0.000000 18.316000 0.000000 12.500000 # B WAT
455 455 2 0.000000 18.316000 0.000000 15.000000 # B WAT
456 456 2 0.000000 18.316000 0.000000 17.500000 # B WAT
457 457 2 0.000000 18.316000 2.500000 0.000000 # B WAT
458 458 2 0.000000 18.316000 2.500000 2.500000 # B WAT
459 459 2 0.000000 18.316000 2.500000 5.000000 # B WAT
460 460 2 0.000000 18.316000 2.500000 7.500000 # B WAT
461 461 2 0.000000 18.316000 2.500000 10.000000 # B WAT
462 462 2 0.000000 18.316000 2.500000 12.500000 # B WAT
463 463 2 0.000000 18.316000 2.500000 15.000000 # B WAT
464 464 2 0.000000 18.316000 2.500000 17.500000 # B WAT
465 465 2 0.000000 18.316000 5.000000 0.000000 # B WAT
466 466 2 0.000000 18.316000 5.000000 2.500000 # B WAT
467 467 2 0.000000 18.316000 5.000000 5.000000 # B WAT
468 468 2 0.000000 18.316000 5.000000 7.500000 # B WAT
469 469 2 0.000000 18.316000 5.000000 10.000000 # B WAT
470 470 2 0.000000 18.316000 5.000000 12.500000 # B WAT
471 471 2 0.000000 18.316000 5.000000 15.000000 # B WAT
472 472 2 0.000000 18.316000 5.000000 17.500000 # B WAT
473 473 2 0.000000 18.316000 7.500000 0.000000 # B WAT
474 474 2 0.000000 18.316000 7.500000 2.500000 # B WAT
475 475 2 0.000000 18.316000 7.500000 5.000000 # B WAT
476 476 2 0.000000 18.316000 7.500000 7.500000 # B WAT
477 477 2 0.000000 18.316000 7.500000 10.000000 # B WAT
478 478 2 0.000000 18.316000 7.500000 12.500000 # B WAT
479 479 2 0.000000 18.316000 7.500000 15.000000 # B WAT
480 480 2 0.000000 18.316000 7.500000 17.500000 # B WAT
481 481 2 0.000000 18.316000 10.000000 0.000000 # B WAT
482 482 2 0.000000 18.316000 10.000000 2.500000 # B WAT
483 483 2 0.000000 18.316000 10.000000 5.000000 # B WAT
484 484 2 0.000000 18.316000 10.000000 7.500000 # B WAT
485 485 2 0.000000 18.316000 10.000000 10.000000 # B WAT
486 486 2 0.000000 18.316000 10.000000 12.500000 # B WAT
487 487 2 0.000000 18.316000 10.000000 15.000000 # B WAT
488 488 2 0.000000 18.316000 10.000000 17.500000 # B WAT
489 489 2 0.000000 18.316000 12.500000 0.000000 # B WAT
490 490 2 0.000000 18.316000 12.500000 2.500000 # B WAT
491 491 2 0.000000 18.316000 12.500000 5.000000 # B WAT
492 492 2 0.000000 18.316000 12.500000 7.500000 # B WAT
493 493 2 0.000000 18.316000 12.500000 10.000000 # B WAT
494 494 2 0.000000 18.316000 12.500000 12.500000 # B WAT
495 495 2 0.000000 18.316000 12.500000 15.000000 # B WAT
496 496 2 0.000000 18.316000 12.500000 17.500000 # B WAT
497 497 2 0.000000 18.316000 15.000000 0.000000 # B WAT
498 498 2 0.000000 18.316000 15.000000 2.500000 # B WAT
499 499 2 0.000000 18.316000 15.000000 5.000000 # B WAT
500 500 2 0.000000 18.316000 15.000000 7.500000 # B WAT
501 501 2 0.000000 18.316000 15.000000 10.000000 # B WAT
502 502 2 0.000000 18.316000 15.000000 12.500000 # B WAT
503 503 2 0.000000 18.316000 15.000000 15.000000 # B WAT
504 504 2 0.000000 18.316000 15.000000 17.500000 # B WAT
505 505 2 0.000000 18.316000 17.500000 0.000000 # B WAT
506 506 2 0.000000 18.316000 17.500000 2.500000 # B WAT
507 507 2 0.000000 18.316000 17.500000 5.000000 # B WAT
508 508 2 0.000000 18.316000 17.500000 7.500000 # B WAT
509 509 2 0.000000 18.316000 17.500000 10.000000 # B WAT
510 510 2 0.000000 18.316000 17.500000 12.500000 # B WAT
511 511 2 0.000000 18.316000 17.500000 15.000000 # B WAT
512 512 2 0.000000 18.316000 17.500000 17.500000 # B WAT

