
read_data	inputFiles/bond.lmpsys
  orthogonal box = (-25 -25 -25) to (25 25 25)
  1 by 1 by 1 MPI processor grid
  reading atoms ...
  11 atoms
  scanning bonds ...
  1 = max bonds/atom
  reading bonds ...
  10 bonds
  2 = max # of 1-2 neighbors
  2 = max # of 1-3 neighbors
  4 = max # of 1-4 neighbors
  6 = max # of special neighbors

pair_style	lj/cut 10.0
bond_style   	harmonic
special_bonds   charmm

pair_coeff   	* * 0.15 3.5	# A
bond_coeff   	1 100.0 3.5	# A-A

velocity 	all create 300.0 7654321

minimize 	1.0e-4 1.0e-6 1000 10000
WARNING: Resetting reneighboring criteria during minimization (../min.cpp:168)
Neighbor list info ...
  1 neighbor list requests
  update every 1 steps, delay 0 steps, check yes
  master list distance cutoff = 12
Memory usage per processor = 6.37326 Mbytes
Step Temp E_pair E_mol TotEng Press 
       0          300            0          250    258.94243    -728.1262 
      37          300            0 2.6269068e-26    8.9424301    3.2702307 

Loop time of 0.000252008 on 1 procs for 37 steps with 11 atoms
0.0% CPU use with 1 MPI tasks x 1 OpenMP threads

Minimization stats:
  Stopping criterion = force tolerance
  Energy initial, next-to-last, final = 
                   250  1.53758422321e-10  2.62690681439e-26
  Force two-norm initial, final = 141.421 2.87803e-12
  Force max component initial, final = 100 1.24345e-12
  Final line search alpha, max atom move = 1 1.24345e-12
  Iterations, force evaluations = 37 50

MPI task timings breakdown:
Section |  min time  |  avg time  |  max time  |%varavg| %total
---------------------------------------------------------------
Pair    | 1.812e-05  | 1.812e-05  | 1.812e-05  |   0.0 |  7.19
Bond    | 4.6968e-05 | 4.6968e-05 | 4.6968e-05 |   0.0 | 18.64
Neigh   | 2.5988e-05 | 2.5988e-05 | 2.5988e-05 |   0.0 | 10.31
Comm    | 2.265e-05  | 2.265e-05  | 2.265e-05  |   0.0 |  8.99
Output  | 0          | 0          | 0          |   0.0 |  0.00
Modify  | 0          | 0          | 0          |   0.0 |  0.00
Other   |            | 0.0001383  |            |       | 54.87

Nlocal:    11 ave 11 max 11 min
Histogram: 1 0 0 0 0 0 0 0 0 0
Nghost:    4 ave 4 max 4 min
Histogram: 1 0 0 0 0 0 0 0 0 0
Neighs:    0 ave 0 max 0 min
Histogram: 1 0 0 0 0 0 0 0 0 0

Total # of neighbors = 0
Ave neighs/atom = 0
Ave special neighs/atom = 4.90909
Neighbor list builds = 2
Dangerous builds = 0

fix 		fxnvt all nvt temp 300.0 300.0 100.0

thermo_style    multi
thermo          1000

dump            dmpdcd	all dcd	100 outputFiles/bond.dcd

run 		10000
Neighbor list info ...
  1 neighbor list requests
  update every 1 steps, delay 10 steps, check yes
  master list distance cutoff = 12
Memory usage per processor = 5.24838 Mbytes
---------------- Step       37 ----- CPU =      0.0000 (sec) ----------------
TotEng   =         8.9424 KinEng   =         8.9424 Temp     =       300.0000 
PotEng   =         0.0000 E_bond   =         0.0000 E_angle  =         0.0000 
E_dihed  =         0.0000 E_impro  =         0.0000 E_vdwl   =         0.0000 
E_coul   =         0.0000 E_long   =         0.0000 Press    =         3.2702 
---------------- Step     1000 ----- CPU =      0.0020 (sec) ----------------
TotEng   =         8.7615 KinEng   =         6.0582 Temp     =       203.2387 
PotEng   =         2.7033 E_bond   =         2.8621 E_angle  =         0.0000 
E_dihed  =         0.0000 E_impro  =         0.0000 E_vdwl   =        -0.1587 
E_coul   =         0.0000 E_long   =         0.0000 Press    =        40.2213 
---------------- Step     2000 ----- CPU =      0.0039 (sec) ----------------
TotEng   =         9.1700 KinEng   =         7.4508 Temp     =       249.9598 
PotEng   =         1.7192 E_bond   =         2.3409 E_angle  =         0.0000 
E_dihed  =         0.0000 E_impro  =         0.0000 E_vdwl   =        -0.6217 
E_coul   =         0.0000 E_long   =         0.0000 Press    =        26.4342 
---------------- Step     3000 ----- CPU =      0.0059 (sec) ----------------
TotEng   =        10.6272 KinEng   =         9.3303 Temp     =       313.0107 
PotEng   =         1.2969 E_bond   =         1.4882 E_angle  =         0.0000 
E_dihed  =         0.0000 E_impro  =         0.0000 E_vdwl   =        -0.1913 
E_coul   =         0.0000 E_long   =         0.0000 Press    =        24.1570 
---------------- Step     4000 ----- CPU =      0.0079 (sec) ----------------
TotEng   =         6.0417 KinEng   =         3.9830 Temp     =       133.6205 
PotEng   =         2.0587 E_bond   =         2.3522 E_angle  =         0.0000 
E_dihed  =         0.0000 E_impro  =         0.0000 E_vdwl   =        -0.2935 
E_coul   =         0.0000 E_long   =         0.0000 Press    =       -10.5849 
---------------- Step     5000 ----- CPU =      0.0100 (sec) ----------------
TotEng   =        10.5939 KinEng   =         6.7743 Temp     =       227.2622 
PotEng   =         3.8196 E_bond   =         3.8502 E_angle  =         0.0000 
E_dihed  =         0.0000 E_impro  =         0.0000 E_vdwl   =        -0.0305 
E_coul   =         0.0000 E_long   =         0.0000 Press    =        40.2350 
---------------- Step     6000 ----- CPU =      0.0118 (sec) ----------------
TotEng   =        12.0444 KinEng   =         9.2564 Temp     =       310.5343 
PotEng   =         2.7880 E_bond   =         2.7986 E_angle  =         0.0000 
E_dihed  =         0.0000 E_impro  =         0.0000 E_vdwl   =        -0.0106 
E_coul   =         0.0000 E_long   =         0.0000 Press    =         2.5483 
---------------- Step     7000 ----- CPU =      0.0135 (sec) ----------------
TotEng   =        12.9584 KinEng   =        11.5569 Temp     =       387.7113 
PotEng   =         1.4014 E_bond   =         1.5547 E_angle  =         0.0000 
E_dihed  =         0.0000 E_impro  =         0.0000 E_vdwl   =        -0.1533 
E_coul   =         0.0000 E_long   =         0.0000 Press    =        -3.4576 
---------------- Step     8000 ----- CPU =      0.0153 (sec) ----------------
TotEng   =        13.1785 KinEng   =        10.0622 Temp     =       337.5656 
PotEng   =         3.1164 E_bond   =         3.2023 E_angle  =         0.0000 
E_dihed  =         0.0000 E_impro  =         0.0000 E_vdwl   =        -0.0859 
E_coul   =         0.0000 E_long   =         0.0000 Press    =        21.7513 
---------------- Step     9000 ----- CPU =      0.0171 (sec) ----------------
TotEng   =        16.5007 KinEng   =        13.9150 Temp     =       466.8196 
PotEng   =         2.5857 E_bond   =         2.8411 E_angle  =         0.0000 
E_dihed  =         0.0000 E_impro  =         0.0000 E_vdwl   =        -0.2555 
E_coul   =         0.0000 E_long   =         0.0000 Press    =         6.4531 
---------------- Step    10000 ----- CPU =      0.0193 (sec) ----------------
TotEng   =        13.2200 KinEng   =        10.4972 Temp     =       352.1608 
PotEng   =         2.7228 E_bond   =         3.4156 E_angle  =         0.0000 
E_dihed  =         0.0000 E_impro  =         0.0000 E_vdwl   =        -0.6929 
E_coul   =         0.0000 E_long   =         0.0000 Press    =       -30.7376 
---------------- Step    10037 ----- CPU =      0.0193 (sec) ----------------
TotEng   =        11.2543 KinEng   =         8.7425 Temp     =       293.2917 
PotEng   =         2.5118 E_bond   =         3.3528 E_angle  =         0.0000 
E_dihed  =         0.0000 E_impro  =         0.0000 E_vdwl   =        -0.8410 
E_coul   =         0.0000 E_long   =         0.0000 Press    =       -56.5384 

Loop time of 0.0193541 on 1 procs for 10000 steps with 11 atoms
87.8% CPU use with 1 MPI tasks x 1 OpenMP threads
Performance: 44641.692 ns/day  0.001 hours/ns  516686.253 timesteps/s

MPI task timings breakdown:
Section |  min time  |  avg time  |  max time  |%varavg| %total
---------------------------------------------------------------
Pair    | 0.0030136  | 0.0030136  | 0.0030136  |   0.0 | 15.57
Bond    | 0.0023956  | 0.0023956  | 0.0023956  |   0.0 | 12.38
Neigh   | 0.0015435  | 0.0015435  | 0.0015435  |   0.0 |  7.98
Comm    | 0.0012095  | 0.0012095  | 0.0012095  |   0.0 |  6.25
Output  | 0.0014484  | 0.0014484  | 0.0014484  |   0.0 |  7.48
Modify  | 0.0073004  | 0.0073004  | 0.0073004  |   0.0 | 37.72
Other   |            | 0.002443   |            |       | 12.62

Nlocal:    11 ave 11 max 11 min
Histogram: 1 0 0 0 0 0 0 0 0 0
Nghost:    0 ave 0 max 0 min
Histogram: 1 0 0 0 0 0 0 0 0 0
Neighs:    26 ave 26 max 26 min
Histogram: 1 0 0 0 0 0 0 0 0 0

Total # of neighbors = 26
Ave neighs/atom = 2.36364
Ave special neighs/atom = 4.90909
Neighbor list builds = 329
Dangerous builds = 0
