LAMMPS data file. CGCMM style. atom_style full generated by VMD/TopoTools v1.2 on Mon Jan 05 16:25:46 AEDT 2015

 512 atoms
 1 atom types

0 24.834391 xlo xhi
0 24.834391 ylo yhi
0 24.834391 zlo zhi


 Masses

 1 15.999400 # O

 Atoms

1 1 1 0.000000 0.816000 0.000000 0.000000 # O WAT
2 2 1 0.000000 0.816000 0.000000 2.500000 # O WAT
3 3 1 0.000000 0.816000 0.000000 5.000000 # O WAT
4 4 1 0.000000 0.816000 0.000000 7.500000 # O WAT
5 5 1 0.000000 0.816000 0.000000 10.000000 # O WAT
6 6 1 0.000000 0.816000 0.000000 12.500000 # O WAT
7 7 1 0.000000 0.816000 0.000000 15.000000 # O WAT
8 8 1 0.000000 0.816000 0.000000 17.500000 # O WAT
9 9 1 0.000000 0.816000 2.500000 0.000000 # O WAT
10 10 1 0.000000 0.816000 2.500000 2.500000 # O WAT
11 11 1 0.000000 0.816000 2.500000 5.000000 # O WAT
12 12 1 0.000000 0.816000 2.500000 7.500000 # O WAT
13 13 1 0.000000 0.816000 2.500000 10.000000 # O WAT
14 14 1 0.000000 0.816000 2.500000 12.500000 # O WAT
15 15 1 0.000000 0.816000 2.500000 15.000000 # O WAT
16 16 1 0.000000 0.816000 2.500000 17.500000 # O WAT
17 17 1 0.000000 0.816000 5.000000 0.000000 # O WAT
18 18 1 0.000000 0.816000 5.000000 2.500000 # O WAT
19 19 1 0.000000 0.816000 5.000000 5.000000 # O WAT
20 20 1 0.000000 0.816000 5.000000 7.500000 # O WAT
21 21 1 0.000000 0.816000 5.000000 10.000000 # O WAT
22 22 1 0.000000 0.816000 5.000000 12.500000 # O WAT
23 23 1 0.000000 0.816000 5.000000 15.000000 # O WAT
24 24 1 0.000000 0.816000 5.000000 17.500000 # O WAT
25 25 1 0.000000 0.816000 7.500000 0.000000 # O WAT
26 26 1 0.000000 0.816000 7.500000 2.500000 # O WAT
27 27 1 0.000000 0.816000 7.500000 5.000000 # O WAT
28 28 1 0.000000 0.816000 7.500000 7.500000 # O WAT
29 29 1 0.000000 0.816000 7.500000 10.000000 # O WAT
30 30 1 0.000000 0.816000 7.500000 12.500000 # O WAT
31 31 1 0.000000 0.816000 7.500000 15.000000 # O WAT
32 32 1 0.000000 0.816000 7.500000 17.500000 # O WAT
33 33 1 0.000000 0.816000 10.000000 0.000000 # O WAT
34 34 1 0.000000 0.816000 10.000000 2.500000 # O WAT
35 35 1 0.000000 0.816000 10.000000 5.000000 # O WAT
36 36 1 0.000000 0.816000 10.000000 7.500000 # O WAT
37 37 1 0.000000 0.816000 10.000000 10.000000 # O WAT
38 38 1 0.000000 0.816000 10.000000 12.500000 # O WAT
39 39 1 0.000000 0.816000 10.000000 15.000000 # O WAT
40 40 1 0.000000 0.816000 10.000000 17.500000 # O WAT
41 41 1 0.000000 0.816000 12.500000 0.000000 # O WAT
42 42 1 0.000000 0.816000 12.500000 2.500000 # O WAT
43 43 1 0.000000 0.816000 12.500000 5.000000 # O WAT
44 44 1 0.000000 0.816000 12.500000 7.500000 # O WAT
45 45 1 0.000000 0.816000 12.500000 10.000000 # O WAT
46 46 1 0.000000 0.816000 12.500000 12.500000 # O WAT
47 47 1 0.000000 0.816000 12.500000 15.000000 # O WAT
48 48 1 0.000000 0.816000 12.500000 17.500000 # O WAT
49 49 1 0.000000 0.816000 15.000000 0.000000 # O WAT
50 50 1 0.000000 0.816000 15.000000 2.500000 # O WAT
51 51 1 0.000000 0.816000 15.000000 5.000000 # O WAT
52 52 1 0.000000 0.816000 15.000000 7.500000 # O WAT
53 53 1 0.000000 0.816000 15.000000 10.000000 # O WAT
54 54 1 0.000000 0.816000 15.000000 12.500000 # O WAT
55 55 1 0.000000 0.816000 15.000000 15.000000 # O WAT
56 56 1 0.000000 0.816000 15.000000 17.500000 # O WAT
57 57 1 0.000000 0.816000 17.500000 0.000000 # O WAT
58 58 1 0.000000 0.816000 17.500000 2.500000 # O WAT
59 59 1 0.000000 0.816000 17.500000 5.000000 # O WAT
60 60 1 0.000000 0.816000 17.500000 7.500000 # O WAT
61 61 1 0.000000 0.816000 17.500000 10.000000 # O WAT
62 62 1 0.000000 0.816000 17.500000 12.500000 # O WAT
63 63 1 0.000000 0.816000 17.500000 15.000000 # O WAT
64 64 1 0.000000 0.816000 17.500000 17.500000 # O WAT
65 65 1 0.000000 3.316000 0.000000 0.000000 # O WAT
66 66 1 0.000000 3.316000 0.000000 2.500000 # O WAT
67 67 1 0.000000 3.316000 0.000000 5.000000 # O WAT
68 68 1 0.000000 3.316000 0.000000 7.500000 # O WAT
69 69 1 0.000000 3.316000 0.000000 10.000000 # O WAT
70 70 1 0.000000 3.316000 0.000000 12.500000 # O WAT
71 71 1 0.000000 3.316000 0.000000 15.000000 # O WAT
72 72 1 0.000000 3.316000 0.000000 17.500000 # O WAT
73 73 1 0.000000 3.316000 2.500000 0.000000 # O WAT
74 74 1 0.000000 3.316000 2.500000 2.500000 # O WAT
75 75 1 0.000000 3.316000 2.500000 5.000000 # O WAT
76 76 1 0.000000 3.316000 2.500000 7.500000 # O WAT
77 77 1 0.000000 3.316000 2.500000 10.000000 # O WAT
78 78 1 0.000000 3.316000 2.500000 12.500000 # O WAT
79 79 1 0.000000 3.316000 2.500000 15.000000 # O WAT
80 80 1 0.000000 3.316000 2.500000 17.500000 # O WAT
81 81 1 0.000000 3.316000 5.000000 0.000000 # O WAT
82 82 1 0.000000 3.316000 5.000000 2.500000 # O WAT
83 83 1 0.000000 3.316000 5.000000 5.000000 # O WAT
84 84 1 0.000000 3.316000 5.000000 7.500000 # O WAT
85 85 1 0.000000 3.316000 5.000000 10.000000 # O WAT
86 86 1 0.000000 3.316000 5.000000 12.500000 # O WAT
87 87 1 0.000000 3.316000 5.000000 15.000000 # O WAT
88 88 1 0.000000 3.316000 5.000000 17.500000 # O WAT
89 89 1 0.000000 3.316000 7.500000 0.000000 # O WAT
90 90 1 0.000000 3.316000 7.500000 2.500000 # O WAT
91 91 1 0.000000 3.316000 7.500000 5.000000 # O WAT
92 92 1 0.000000 3.316000 7.500000 7.500000 # O WAT
93 93 1 0.000000 3.316000 7.500000 10.000000 # O WAT
94 94 1 0.000000 3.316000 7.500000 12.500000 # O WAT
95 95 1 0.000000 3.316000 7.500000 15.000000 # O WAT
96 96 1 0.000000 3.316000 7.500000 17.500000 # O WAT
97 97 1 0.000000 3.316000 10.000000 0.000000 # O WAT
98 98 1 0.000000 3.316000 10.000000 2.500000 # O WAT
99 99 1 0.000000 3.316000 10.000000 5.000000 # O WAT
100 100 1 0.000000 3.316000 10.000000 7.500000 # O WAT
101 101 1 0.000000 3.316000 10.000000 10.000000 # O WAT
102 102 1 0.000000 3.316000 10.000000 12.500000 # O WAT
103 103 1 0.000000 3.316000 10.000000 15.000000 # O WAT
104 104 1 0.000000 3.316000 10.000000 17.500000 # O WAT
105 105 1 0.000000 3.316000 12.500000 0.000000 # O WAT
106 106 1 0.000000 3.316000 12.500000 2.500000 # O WAT
107 107 1 0.000000 3.316000 12.500000 5.000000 # O WAT
108 108 1 0.000000 3.316000 12.500000 7.500000 # O WAT
109 109 1 0.000000 3.316000 12.500000 10.000000 # O WAT
110 110 1 0.000000 3.316000 12.500000 12.500000 # O WAT
111 111 1 0.000000 3.316000 12.500000 15.000000 # O WAT
112 112 1 0.000000 3.316000 12.500000 17.500000 # O WAT
113 113 1 0.000000 3.316000 15.000000 0.000000 # O WAT
114 114 1 0.000000 3.316000 15.000000 2.500000 # O WAT
115 115 1 0.000000 3.316000 15.000000 5.000000 # O WAT
116 116 1 0.000000 3.316000 15.000000 7.500000 # O WAT
117 117 1 0.000000 3.316000 15.000000 10.000000 # O WAT
118 118 1 0.000000 3.316000 15.000000 12.500000 # O WAT
119 119 1 0.000000 3.316000 15.000000 15.000000 # O WAT
120 120 1 0.000000 3.316000 15.000000 17.500000 # O WAT
121 121 1 0.000000 3.316000 17.500000 0.000000 # O WAT
122 122 1 0.000000 3.316000 17.500000 2.500000 # O WAT
123 123 1 0.000000 3.316000 17.500000 5.000000 # O WAT
124 124 1 0.000000 3.316000 17.500000 7.500000 # O WAT
125 125 1 0.000000 3.316000 17.500000 10.000000 # O WAT
126 126 1 0.000000 3.316000 17.500000 12.500000 # O WAT
127 127 1 0.000000 3.316000 17.500000 15.000000 # O WAT
128 128 1 0.000000 3.316000 17.500000 17.500000 # O WAT
129 129 1 0.000000 5.816000 0.000000 0.000000 # O WAT
130 130 1 0.000000 5.816000 0.000000 2.500000 # O WAT
131 131 1 0.000000 5.816000 0.000000 5.000000 # O WAT
132 132 1 0.000000 5.816000 0.000000 7.500000 # O WAT
133 133 1 0.000000 5.816000 0.000000 10.000000 # O WAT
134 134 1 0.000000 5.816000 0.000000 12.500000 # O WAT
135 135 1 0.000000 5.816000 0.000000 15.000000 # O WAT
136 136 1 0.000000 5.816000 0.000000 17.500000 # O WAT
137 137 1 0.000000 5.816000 2.500000 0.000000 # O WAT
138 138 1 0.000000 5.816000 2.500000 2.500000 # O WAT
139 139 1 0.000000 5.816000 2.500000 5.000000 # O WAT
140 140 1 0.000000 5.816000 2.500000 7.500000 # O WAT
141 141 1 0.000000 5.816000 2.500000 10.000000 # O WAT
142 142 1 0.000000 5.816000 2.500000 12.500000 # O WAT
143 143 1 0.000000 5.816000 2.500000 15.000000 # O WAT
144 144 1 0.000000 5.816000 2.500000 17.500000 # O WAT
145 145 1 0.000000 5.816000 5.000000 0.000000 # O WAT
146 146 1 0.000000 5.816000 5.000000 2.500000 # O WAT
147 147 1 0.000000 5.816000 5.000000 5.000000 # O WAT
148 148 1 0.000000 5.816000 5.000000 7.500000 # O WAT
149 149 1 0.000000 5.816000 5.000000 10.000000 # O WAT
150 150 1 0.000000 5.816000 5.000000 12.500000 # O WAT
151 151 1 0.000000 5.816000 5.000000 15.000000 # O WAT
152 152 1 0.000000 5.816000 5.000000 17.500000 # O WAT
153 153 1 0.000000 5.816000 7.500000 0.000000 # O WAT
154 154 1 0.000000 5.816000 7.500000 2.500000 # O WAT
155 155 1 0.000000 5.816000 7.500000 5.000000 # O WAT
156 156 1 0.000000 5.816000 7.500000 7.500000 # O WAT
157 157 1 0.000000 5.816000 7.500000 10.000000 # O WAT
158 158 1 0.000000 5.816000 7.500000 12.500000 # O WAT
159 159 1 0.000000 5.816000 7.500000 15.000000 # O WAT
160 160 1 0.000000 5.816000 7.500000 17.500000 # O WAT
161 161 1 0.000000 5.816000 10.000000 0.000000 # O WAT
162 162 1 0.000000 5.816000 10.000000 2.500000 # O WAT
163 163 1 0.000000 5.816000 10.000000 5.000000 # O WAT
164 164 1 0.000000 5.816000 10.000000 7.500000 # O WAT
165 165 1 0.000000 5.816000 10.000000 10.000000 # O WAT
166 166 1 0.000000 5.816000 10.000000 12.500000 # O WAT
167 167 1 0.000000 5.816000 10.000000 15.000000 # O WAT
168 168 1 0.000000 5.816000 10.000000 17.500000 # O WAT
169 169 1 0.000000 5.816000 12.500000 0.000000 # O WAT
170 170 1 0.000000 5.816000 12.500000 2.500000 # O WAT
171 171 1 0.000000 5.816000 12.500000 5.000000 # O WAT
172 172 1 0.000000 5.816000 12.500000 7.500000 # O WAT
173 173 1 0.000000 5.816000 12.500000 10.000000 # O WAT
174 174 1 0.000000 5.816000 12.500000 12.500000 # O WAT
175 175 1 0.000000 5.816000 12.500000 15.000000 # O WAT
176 176 1 0.000000 5.816000 12.500000 17.500000 # O WAT
177 177 1 0.000000 5.816000 15.000000 0.000000 # O WAT
178 178 1 0.000000 5.816000 15.000000 2.500000 # O WAT
179 179 1 0.000000 5.816000 15.000000 5.000000 # O WAT
180 180 1 0.000000 5.816000 15.000000 7.500000 # O WAT
181 181 1 0.000000 5.816000 15.000000 10.000000 # O WAT
182 182 1 0.000000 5.816000 15.000000 12.500000 # O WAT
183 183 1 0.000000 5.816000 15.000000 15.000000 # O WAT
184 184 1 0.000000 5.816000 15.000000 17.500000 # O WAT
185 185 1 0.000000 5.816000 17.500000 0.000000 # O WAT
186 186 1 0.000000 5.816000 17.500000 2.500000 # O WAT
187 187 1 0.000000 5.816000 17.500000 5.000000 # O WAT
188 188 1 0.000000 5.816000 17.500000 7.500000 # O WAT
189 189 1 0.000000 5.816000 17.500000 10.000000 # O WAT
190 190 1 0.000000 5.816000 17.500000 12.500000 # O WAT
191 191 1 0.000000 5.816000 17.500000 15.000000 # O WAT
192 192 1 0.000000 5.816000 17.500000 17.500000 # O WAT
193 193 1 0.000000 8.316000 0.000000 0.000000 # O WAT
194 194 1 0.000000 8.316000 0.000000 2.500000 # O WAT
195 195 1 0.000000 8.316000 0.000000 5.000000 # O WAT
196 196 1 0.000000 8.316000 0.000000 7.500000 # O WAT
197 197 1 0.000000 8.316000 0.000000 10.000000 # O WAT
198 198 1 0.000000 8.316000 0.000000 12.500000 # O WAT
199 199 1 0.000000 8.316000 0.000000 15.000000 # O WAT
200 200 1 0.000000 8.316000 0.000000 17.500000 # O WAT
201 201 1 0.000000 8.316000 2.500000 0.000000 # O WAT
202 202 1 0.000000 8.316000 2.500000 2.500000 # O WAT
203 203 1 0.000000 8.316000 2.500000 5.000000 # O WAT
204 204 1 0.000000 8.316000 2.500000 7.500000 # O WAT
205 205 1 0.000000 8.316000 2.500000 10.000000 # O WAT
206 206 1 0.000000 8.316000 2.500000 12.500000 # O WAT
207 207 1 0.000000 8.316000 2.500000 15.000000 # O WAT
208 208 1 0.000000 8.316000 2.500000 17.500000 # O WAT
209 209 1 0.000000 8.316000 5.000000 0.000000 # O WAT
210 210 1 0.000000 8.316000 5.000000 2.500000 # O WAT
211 211 1 0.000000 8.316000 5.000000 5.000000 # O WAT
212 212 1 0.000000 8.316000 5.000000 7.500000 # O WAT
213 213 1 0.000000 8.316000 5.000000 10.000000 # O WAT
214 214 1 0.000000 8.316000 5.000000 12.500000 # O WAT
215 215 1 0.000000 8.316000 5.000000 15.000000 # O WAT
216 216 1 0.000000 8.316000 5.000000 17.500000 # O WAT
217 217 1 0.000000 8.316000 7.500000 0.000000 # O WAT
218 218 1 0.000000 8.316000 7.500000 2.500000 # O WAT
219 219 1 0.000000 8.316000 7.500000 5.000000 # O WAT
220 220 1 0.000000 8.316000 7.500000 7.500000 # O WAT
221 221 1 0.000000 8.316000 7.500000 10.000000 # O WAT
222 222 1 0.000000 8.316000 7.500000 12.500000 # O WAT
223 223 1 0.000000 8.316000 7.500000 15.000000 # O WAT
224 224 1 0.000000 8.316000 7.500000 17.500000 # O WAT
225 225 1 0.000000 8.316000 10.000000 0.000000 # O WAT
226 226 1 0.000000 8.316000 10.000000 2.500000 # O WAT
227 227 1 0.000000 8.316000 10.000000 5.000000 # O WAT
228 228 1 0.000000 8.316000 10.000000 7.500000 # O WAT
229 229 1 0.000000 8.316000 10.000000 10.000000 # O WAT
230 230 1 0.000000 8.316000 10.000000 12.500000 # O WAT
231 231 1 0.000000 8.316000 10.000000 15.000000 # O WAT
232 232 1 0.000000 8.316000 10.000000 17.500000 # O WAT
233 233 1 0.000000 8.316000 12.500000 0.000000 # O WAT
234 234 1 0.000000 8.316000 12.500000 2.500000 # O WAT
235 235 1 0.000000 8.316000 12.500000 5.000000 # O WAT
236 236 1 0.000000 8.316000 12.500000 7.500000 # O WAT
237 237 1 0.000000 8.316000 12.500000 10.000000 # O WAT
238 238 1 0.000000 8.316000 12.500000 12.500000 # O WAT
239 239 1 0.000000 8.316000 12.500000 15.000000 # O WAT
240 240 1 0.000000 8.316000 12.500000 17.500000 # O WAT
241 241 1 0.000000 8.316000 15.000000 0.000000 # O WAT
242 242 1 0.000000 8.316000 15.000000 2.500000 # O WAT
243 243 1 0.000000 8.316000 15.000000 5.000000 # O WAT
244 244 1 0.000000 8.316000 15.000000 7.500000 # O WAT
245 245 1 0.000000 8.316000 15.000000 10.000000 # O WAT
246 246 1 0.000000 8.316000 15.000000 12.500000 # O WAT
247 247 1 0.000000 8.316000 15.000000 15.000000 # O WAT
248 248 1 0.000000 8.316000 15.000000 17.500000 # O WAT
249 249 1 0.000000 8.316000 17.500000 0.000000 # O WAT
250 250 1 0.000000 8.316000 17.500000 2.500000 # O WAT
251 251 1 0.000000 8.316000 17.500000 5.000000 # O WAT
252 252 1 0.000000 8.316000 17.500000 7.500000 # O WAT
253 253 1 0.000000 8.316000 17.500000 10.000000 # O WAT
254 254 1 0.000000 8.316000 17.500000 12.500000 # O WAT
255 255 1 0.000000 8.316000 17.500000 15.000000 # O WAT
256 256 1 0.000000 8.316000 17.500000 17.500000 # O WAT
257 257 1 0.000000 10.816000 0.000000 0.000000 # O WAT
258 258 1 0.000000 10.816000 0.000000 2.500000 # O WAT
259 259 1 0.000000 10.816000 0.000000 5.000000 # O WAT
260 260 1 0.000000 10.816000 0.000000 7.500000 # O WAT
261 261 1 0.000000 10.816000 0.000000 10.000000 # O WAT
262 262 1 0.000000 10.816000 0.000000 12.500000 # O WAT
263 263 1 0.000000 10.816000 0.000000 15.000000 # O WAT
264 264 1 0.000000 10.816000 0.000000 17.500000 # O WAT
265 265 1 0.000000 10.816000 2.500000 0.000000 # O WAT
266 266 1 0.000000 10.816000 2.500000 2.500000 # O WAT
267 267 1 0.000000 10.816000 2.500000 5.000000 # O WAT
268 268 1 0.000000 10.816000 2.500000 7.500000 # O WAT
269 269 1 0.000000 10.816000 2.500000 10.000000 # O WAT
270 270 1 0.000000 10.816000 2.500000 12.500000 # O WAT
271 271 1 0.000000 10.816000 2.500000 15.000000 # O WAT
272 272 1 0.000000 10.816000 2.500000 17.500000 # O WAT
273 273 1 0.000000 10.816000 5.000000 0.000000 # O WAT
274 274 1 0.000000 10.816000 5.000000 2.500000 # O WAT
275 275 1 0.000000 10.816000 5.000000 5.000000 # O WAT
276 276 1 0.000000 10.816000 5.000000 7.500000 # O WAT
277 277 1 0.000000 10.816000 5.000000 10.000000 # O WAT
278 278 1 0.000000 10.816000 5.000000 12.500000 # O WAT
279 279 1 0.000000 10.816000 5.000000 15.000000 # O WAT
280 280 1 0.000000 10.816000 5.000000 17.500000 # O WAT
281 281 1 0.000000 10.816000 7.500000 0.000000 # O WAT
282 282 1 0.000000 10.816000 7.500000 2.500000 # O WAT
283 283 1 0.000000 10.816000 7.500000 5.000000 # O WAT
284 284 1 0.000000 10.816000 7.500000 7.500000 # O WAT
285 285 1 0.000000 10.816000 7.500000 10.000000 # O WAT
286 286 1 0.000000 10.816000 7.500000 12.500000 # O WAT
287 287 1 0.000000 10.816000 7.500000 15.000000 # O WAT
288 288 1 0.000000 10.816000 7.500000 17.500000 # O WAT
289 289 1 0.000000 10.816000 10.000000 0.000000 # O WAT
290 290 1 0.000000 10.816000 10.000000 2.500000 # O WAT
291 291 1 0.000000 10.816000 10.000000 5.000000 # O WAT
292 292 1 0.000000 10.816000 10.000000 7.500000 # O WAT
293 293 1 0.000000 10.816000 10.000000 10.000000 # O WAT
294 294 1 0.000000 10.816000 10.000000 12.500000 # O WAT
295 295 1 0.000000 10.816000 10.000000 15.000000 # O WAT
296 296 1 0.000000 10.816000 10.000000 17.500000 # O WAT
297 297 1 0.000000 10.816000 12.500000 0.000000 # O WAT
298 298 1 0.000000 10.816000 12.500000 2.500000 # O WAT
299 299 1 0.000000 10.816000 12.500000 5.000000 # O WAT
300 300 1 0.000000 10.816000 12.500000 7.500000 # O WAT
301 301 1 0.000000 10.816000 12.500000 10.000000 # O WAT
302 302 1 0.000000 10.816000 12.500000 12.500000 # O WAT
303 303 1 0.000000 10.816000 12.500000 15.000000 # O WAT
304 304 1 0.000000 10.816000 12.500000 17.500000 # O WAT
305 305 1 0.000000 10.816000 15.000000 0.000000 # O WAT
306 306 1 0.000000 10.816000 15.000000 2.500000 # O WAT
307 307 1 0.000000 10.816000 15.000000 5.000000 # O WAT
308 308 1 0.000000 10.816000 15.000000 7.500000 # O WAT
309 309 1 0.000000 10.816000 15.000000 10.000000 # O WAT
310 310 1 0.000000 10.816000 15.000000 12.500000 # O WAT
311 311 1 0.000000 10.816000 15.000000 15.000000 # O WAT
312 312 1 0.000000 10.816000 15.000000 17.500000 # O WAT
313 313 1 0.000000 10.816000 17.500000 0.000000 # O WAT
314 314 1 0.000000 10.816000 17.500000 2.500000 # O WAT
315 315 1 0.000000 10.816000 17.500000 5.000000 # O WAT
316 316 1 0.000000 10.816000 17.500000 7.500000 # O WAT
317 317 1 0.000000 10.816000 17.500000 10.000000 # O WAT
318 318 1 0.000000 10.816000 17.500000 12.500000 # O WAT
319 319 1 0.000000 10.816000 17.500000 15.000000 # O WAT
320 320 1 0.000000 10.816000 17.500000 17.500000 # O WAT
321 321 1 0.000000 13.316000 0.000000 0.000000 # O WAT
322 322 1 0.000000 13.316000 0.000000 2.500000 # O WAT
323 323 1 0.000000 13.316000 0.000000 5.000000 # O WAT
324 324 1 0.000000 13.316000 0.000000 7.500000 # O WAT
325 325 1 0.000000 13.316000 0.000000 10.000000 # O WAT
326 326 1 0.000000 13.316000 0.000000 12.500000 # O WAT
327 327 1 0.000000 13.316000 0.000000 15.000000 # O WAT
328 328 1 0.000000 13.316000 0.000000 17.500000 # O WAT
329 329 1 0.000000 13.316000 2.500000 0.000000 # O WAT
330 330 1 0.000000 13.316000 2.500000 2.500000 # O WAT
331 331 1 0.000000 13.316000 2.500000 5.000000 # O WAT
332 332 1 0.000000 13.316000 2.500000 7.500000 # O WAT
333 333 1 0.000000 13.316000 2.500000 10.000000 # O WAT
334 334 1 0.000000 13.316000 2.500000 12.500000 # O WAT
335 335 1 0.000000 13.316000 2.500000 15.000000 # O WAT
336 336 1 0.000000 13.316000 2.500000 17.500000 # O WAT
337 337 1 0.000000 13.316000 5.000000 0.000000 # O WAT
338 338 1 0.000000 13.316000 5.000000 2.500000 # O WAT
339 339 1 0.000000 13.316000 5.000000 5.000000 # O WAT
340 340 1 0.000000 13.316000 5.000000 7.500000 # O WAT
341 341 1 0.000000 13.316000 5.000000 10.000000 # O WAT
342 342 1 0.000000 13.316000 5.000000 12.500000 # O WAT
343 343 1 0.000000 13.316000 5.000000 15.000000 # O WAT
344 344 1 0.000000 13.316000 5.000000 17.500000 # O WAT
345 345 1 0.000000 13.316000 7.500000 0.000000 # O WAT
346 346 1 0.000000 13.316000 7.500000 2.500000 # O WAT
347 347 1 0.000000 13.316000 7.500000 5.000000 # O WAT
348 348 1 0.000000 13.316000 7.500000 7.500000 # O WAT
349 349 1 0.000000 13.316000 7.500000 10.000000 # O WAT
350 350 1 0.000000 13.316000 7.500000 12.500000 # O WAT
351 351 1 0.000000 13.316000 7.500000 15.000000 # O WAT
352 352 1 0.000000 13.316000 7.500000 17.500000 # O WAT
353 353 1 0.000000 13.316000 10.000000 0.000000 # O WAT
354 354 1 0.000000 13.316000 10.000000 2.500000 # O WAT
355 355 1 0.000000 13.316000 10.000000 5.000000 # O WAT
356 356 1 0.000000 13.316000 10.000000 7.500000 # O WAT
357 357 1 0.000000 13.316000 10.000000 10.000000 # O WAT
358 358 1 0.000000 13.316000 10.000000 12.500000 # O WAT
359 359 1 0.000000 13.316000 10.000000 15.000000 # O WAT
360 360 1 0.000000 13.316000 10.000000 17.500000 # O WAT
361 361 1 0.000000 13.316000 12.500000 0.000000 # O WAT
362 362 1 0.000000 13.316000 12.500000 2.500000 # O WAT
363 363 1 0.000000 13.316000 12.500000 5.000000 # O WAT
364 364 1 0.000000 13.316000 12.500000 7.500000 # O WAT
365 365 1 0.000000 13.316000 12.500000 10.000000 # O WAT
366 366 1 0.000000 13.316000 12.500000 12.500000 # O WAT
367 367 1 0.000000 13.316000 12.500000 15.000000 # O WAT
368 368 1 0.000000 13.316000 12.500000 17.500000 # O WAT
369 369 1 0.000000 13.316000 15.000000 0.000000 # O WAT
370 370 1 0.000000 13.316000 15.000000 2.500000 # O WAT
371 371 1 0.000000 13.316000 15.000000 5.000000 # O WAT
372 372 1 0.000000 13.316000 15.000000 7.500000 # O WAT
373 373 1 0.000000 13.316000 15.000000 10.000000 # O WAT
374 374 1 0.000000 13.316000 15.000000 12.500000 # O WAT
375 375 1 0.000000 13.316000 15.000000 15.000000 # O WAT
376 376 1 0.000000 13.316000 15.000000 17.500000 # O WAT
377 377 1 0.000000 13.316000 17.500000 0.000000 # O WAT
378 378 1 0.000000 13.316000 17.500000 2.500000 # O WAT
379 379 1 0.000000 13.316000 17.500000 5.000000 # O WAT
380 380 1 0.000000 13.316000 17.500000 7.500000 # O WAT
381 381 1 0.000000 13.316000 17.500000 10.000000 # O WAT
382 382 1 0.000000 13.316000 17.500000 12.500000 # O WAT
383 383 1 0.000000 13.316000 17.500000 15.000000 # O WAT
384 384 1 0.000000 13.316000 17.500000 17.500000 # O WAT
385 385 1 0.000000 15.816000 0.000000 0.000000 # O WAT
386 386 1 0.000000 15.816000 0.000000 2.500000 # O WAT
387 387 1 0.000000 15.816000 0.000000 5.000000 # O WAT
388 388 1 0.000000 15.816000 0.000000 7.500000 # O WAT
389 389 1 0.000000 15.816000 0.000000 10.000000 # O WAT
390 390 1 0.000000 15.816000 0.000000 12.500000 # O WAT
391 391 1 0.000000 15.816000 0.000000 15.000000 # O WAT
392 392 1 0.000000 15.816000 0.000000 17.500000 # O WAT
393 393 1 0.000000 15.816000 2.500000 0.000000 # O WAT
394 394 1 0.000000 15.816000 2.500000 2.500000 # O WAT
395 395 1 0.000000 15.816000 2.500000 5.000000 # O WAT
396 396 1 0.000000 15.816000 2.500000 7.500000 # O WAT
397 397 1 0.000000 15.816000 2.500000 10.000000 # O WAT
398 398 1 0.000000 15.816000 2.500000 12.500000 # O WAT
399 399 1 0.000000 15.816000 2.500000 15.000000 # O WAT
400 400 1 0.000000 15.816000 2.500000 17.500000 # O WAT
401 401 1 0.000000 15.816000 5.000000 0.000000 # O WAT
402 402 1 0.000000 15.816000 5.000000 2.500000 # O WAT
403 403 1 0.000000 15.816000 5.000000 5.000000 # O WAT
404 404 1 0.000000 15.816000 5.000000 7.500000 # O WAT
405 405 1 0.000000 15.816000 5.000000 10.000000 # O WAT
406 406 1 0.000000 15.816000 5.000000 12.500000 # O WAT
407 407 1 0.000000 15.816000 5.000000 15.000000 # O WAT
408 408 1 0.000000 15.816000 5.000000 17.500000 # O WAT
409 409 1 0.000000 15.816000 7.500000 0.000000 # O WAT
410 410 1 0.000000 15.816000 7.500000 2.500000 # O WAT
411 411 1 0.000000 15.816000 7.500000 5.000000 # O WAT
412 412 1 0.000000 15.816000 7.500000 7.500000 # O WAT
413 413 1 0.000000 15.816000 7.500000 10.000000 # O WAT
414 414 1 0.000000 15.816000 7.500000 12.500000 # O WAT
415 415 1 0.000000 15.816000 7.500000 15.000000 # O WAT
416 416 1 0.000000 15.816000 7.500000 17.500000 # O WAT
417 417 1 0.000000 15.816000 10.000000 0.000000 # O WAT
418 418 1 0.000000 15.816000 10.000000 2.500000 # O WAT
419 419 1 0.000000 15.816000 10.000000 5.000000 # O WAT
420 420 1 0.000000 15.816000 10.000000 7.500000 # O WAT
421 421 1 0.000000 15.816000 10.000000 10.000000 # O WAT
422 422 1 0.000000 15.816000 10.000000 12.500000 # O WAT
423 423 1 0.000000 15.816000 10.000000 15.000000 # O WAT
424 424 1 0.000000 15.816000 10.000000 17.500000 # O WAT
425 425 1 0.000000 15.816000 12.500000 0.000000 # O WAT
426 426 1 0.000000 15.816000 12.500000 2.500000 # O WAT
427 427 1 0.000000 15.816000 12.500000 5.000000 # O WAT
428 428 1 0.000000 15.816000 12.500000 7.500000 # O WAT
429 429 1 0.000000 15.816000 12.500000 10.000000 # O WAT
430 430 1 0.000000 15.816000 12.500000 12.500000 # O WAT
431 431 1 0.000000 15.816000 12.500000 15.000000 # O WAT
432 432 1 0.000000 15.816000 12.500000 17.500000 # O WAT
433 433 1 0.000000 15.816000 15.000000 0.000000 # O WAT
434 434 1 0.000000 15.816000 15.000000 2.500000 # O WAT
435 435 1 0.000000 15.816000 15.000000 5.000000 # O WAT
436 436 1 0.000000 15.816000 15.000000 7.500000 # O WAT
437 437 1 0.000000 15.816000 15.000000 10.000000 # O WAT
438 438 1 0.000000 15.816000 15.000000 12.500000 # O WAT
439 439 1 0.000000 15.816000 15.000000 15.000000 # O WAT
440 440 1 0.000000 15.816000 15.000000 17.500000 # O WAT
441 441 1 0.000000 15.816000 17.500000 0.000000 # O WAT
442 442 1 0.000000 15.816000 17.500000 2.500000 # O WAT
443 443 1 0.000000 15.816000 17.500000 5.000000 # O WAT
444 444 1 0.000000 15.816000 17.500000 7.500000 # O WAT
445 445 1 0.000000 15.816000 17.500000 10.000000 # O WAT
446 446 1 0.000000 15.816000 17.500000 12.500000 # O WAT
447 447 1 0.000000 15.816000 17.500000 15.000000 # O WAT
448 448 1 0.000000 15.816000 17.500000 17.500000 # O WAT
449 449 1 0.000000 18.316000 0.000000 0.000000 # O WAT
450 450 1 0.000000 18.316000 0.000000 2.500000 # O WAT
451 451 1 0.000000 18.316000 0.000000 5.000000 # O WAT
452 452 1 0.000000 18.316000 0.000000 7.500000 # O WAT
453 453 1 0.000000 18.316000 0.000000 10.000000 # O WAT
454 454 1 0.000000 18.316000 0.000000 12.500000 # O WAT
455 455 1 0.000000 18.316000 0.000000 15.000000 # O WAT
456 456 1 0.000000 18.316000 0.000000 17.500000 # O WAT
457 457 1 0.000000 18.316000 2.500000 0.000000 # O WAT
458 458 1 0.000000 18.316000 2.500000 2.500000 # O WAT
459 459 1 0.000000 18.316000 2.500000 5.000000 # O WAT
460 460 1 0.000000 18.316000 2.500000 7.500000 # O WAT
461 461 1 0.000000 18.316000 2.500000 10.000000 # O WAT
462 462 1 0.000000 18.316000 2.500000 12.500000 # O WAT
463 463 1 0.000000 18.316000 2.500000 15.000000 # O WAT
464 464 1 0.000000 18.316000 2.500000 17.500000 # O WAT
465 465 1 0.000000 18.316000 5.000000 0.000000 # O WAT
466 466 1 0.000000 18.316000 5.000000 2.500000 # O WAT
467 467 1 0.000000 18.316000 5.000000 5.000000 # O WAT
468 468 1 0.000000 18.316000 5.000000 7.500000 # O WAT
469 469 1 0.000000 18.316000 5.000000 10.000000 # O WAT
470 470 1 0.000000 18.316000 5.000000 12.500000 # O WAT
471 471 1 0.000000 18.316000 5.000000 15.000000 # O WAT
472 472 1 0.000000 18.316000 5.000000 17.500000 # O WAT
473 473 1 0.000000 18.316000 7.500000 0.000000 # O WAT
474 474 1 0.000000 18.316000 7.500000 2.500000 # O WAT
475 475 1 0.000000 18.316000 7.500000 5.000000 # O WAT
476 476 1 0.000000 18.316000 7.500000 7.500000 # O WAT
477 477 1 0.000000 18.316000 7.500000 10.000000 # O WAT
478 478 1 0.000000 18.316000 7.500000 12.500000 # O WAT
479 479 1 0.000000 18.316000 7.500000 15.000000 # O WAT
480 480 1 0.000000 18.316000 7.500000 17.500000 # O WAT
481 481 1 0.000000 18.316000 10.000000 0.000000 # O WAT
482 482 1 0.000000 18.316000 10.000000 2.500000 # O WAT
483 483 1 0.000000 18.316000 10.000000 5.000000 # O WAT
484 484 1 0.000000 18.316000 10.000000 7.500000 # O WAT
485 485 1 0.000000 18.316000 10.000000 10.000000 # O WAT
486 486 1 0.000000 18.316000 10.000000 12.500000 # O WAT
487 487 1 0.000000 18.316000 10.000000 15.000000 # O WAT
488 488 1 0.000000 18.316000 10.000000 17.500000 # O WAT
489 489 1 0.000000 18.316000 12.500000 0.000000 # O WAT
490 490 1 0.000000 18.316000 12.500000 2.500000 # O WAT
491 491 1 0.000000 18.316000 12.500000 5.000000 # O WAT
492 492 1 0.000000 18.316000 12.500000 7.500000 # O WAT
493 493 1 0.000000 18.316000 12.500000 10.000000 # O WAT
494 494 1 0.000000 18.316000 12.500000 12.500000 # O WAT
495 495 1 0.000000 18.316000 12.500000 15.000000 # O WAT
496 496 1 0.000000 18.316000 12.500000 17.500000 # O WAT
497 497 1 0.000000 18.316000 15.000000 0.000000 # O WAT
498 498 1 0.000000 18.316000 15.000000 2.500000 # O WAT
499 499 1 0.000000 18.316000 15.000000 5.000000 # O WAT
500 500 1 0.000000 18.316000 15.000000 7.500000 # O WAT
501 501 1 0.000000 18.316000 15.000000 10.000000 # O WAT
502 502 1 0.000000 18.316000 15.000000 12.500000 # O WAT
503 503 1 0.000000 18.316000 15.000000 15.000000 # O WAT
504 504 1 0.000000 18.316000 15.000000 17.500000 # O WAT
505 505 1 0.000000 18.316000 17.500000 0.000000 # O WAT
506 506 1 0.000000 18.316000 17.500000 2.500000 # O WAT
507 507 1 0.000000 18.316000 17.500000 5.000000 # O WAT
508 508 1 0.000000 18.316000 17.500000 7.500000 # O WAT
509 509 1 0.000000 18.316000 17.500000 10.000000 # O WAT
510 510 1 0.000000 18.316000 17.500000 12.500000 # O WAT
511 511 1 0.000000 18.316000 17.500000 15.000000 # O WAT
512 512 1 0.000000 18.316000 17.500000 17.500000 # O WAT

