
read_data	inputFiles/graphene.lmpsys
  orthogonal box = (-1.84204 -0.708999 -50) to (39.9108 41.831 50)
  1 by 1 by 2 MPI processor grid
  reading atoms ...
  680 atoms
  0 = max # of 1-2 neighbors
  0 = max # of 1-3 neighbors
  0 = max # of 1-4 neighbors
  1 = max # of special neighbors
#read_data       inputFiles/grapheneBonds.lmpsys

atom_modify 	sort 10 20.0

pair_style 	rebo
pair_coeff 	* * inputFiles/CH.airebo.real C
neighbor	2.0 bin
neigh_modify	every 1 check yes

velocity       all create 300 1234567 mom yes rot yes dist gaussian

timestep	1.0
fix 		fxnvt all nvt temp 300.0 300.0 100.0
#fix 		fxnve all nve
#fix            temp all temp/berendsen 300.0 300.0 100.0

variable	vpeatom equal pe/atoms
thermo_style    custom step temp pe v_vpeatom etotal press
thermo          100

dump            dmpall all dcd 100 outputFiles/graphene.dcd
dump_modify 	dmpall unwrap yes

run 		1000
Neighbor list info ...
  1 neighbor list requests
  update every 1 steps, delay 10 steps, check yes
  master list distance cutoff = 8
Memory usage per processor = 5.86275 Mbytes
Step Temp PotEng vpeatom TotEng Press 
       0          300   -122208.76   -179.71877   -121601.57   -3636.3635 
     100     175.0958    -121890.1   -179.25015   -121535.71   -3629.7615 
     200    191.69722    -121819.1   -179.14573   -121431.11   -3579.5107 
     300    214.13107    -121741.4   -179.03147   -121308.01   -3564.1453 
     400    243.32401   -121669.78   -178.92615    -121177.3   -3535.4777 
     500    298.64272   -121658.37   -178.90936   -121053.92   -3509.6655 
     600    305.04006   -121574.93   -178.78666   -120957.54   -3444.8075 
     700    308.56814   -121549.62   -178.74944   -120925.08   -3500.3149 
     800    311.26085   -121592.97   -178.81319   -120962.99   -3515.7125 
     900    319.26153   -121670.12   -178.92664   -121023.94   -3417.5885 
    1000    274.37798    -121612.8   -178.84235   -121057.47    -3501.197 

Loop time of 4.98705 on 2 procs for 1000 steps with 680 atoms
99.8% CPU use with 2 MPI tasks x 1 OpenMP threads
Performance: 17.325 ns/day  1.385 hours/ns  200.519 timesteps/s

MPI task timings breakdown:
Section |  min time  |  avg time  |  max time  |%varavg| %total
---------------------------------------------------------------
Pair    | 0.24675    | 2.5683     | 4.8899     | 144.9 | 51.50
Bond    | 0.00019598 | 0.00024998 | 0.00030398 |   0.3 |  0.01
Neigh   | 0          | 0          | 0          |   0.0 |  0.00
Comm    | 0.053319   | 2.371      | 4.6887     | 150.5 | 47.54
Output  | 0.001893   | 0.0019579  | 0.0020227  |   0.1 |  0.04
Modify  | 0.025902   | 0.028939   | 0.031977   |   1.8 |  0.58
Other   |            | 0.01656    |            |       |  0.33

Nlocal:    340 ave 680 max 0 min
Histogram: 1 0 0 0 0 0 0 0 0 1
Nghost:    1004 ave 1344 max 664 min
Histogram: 1 0 0 0 0 0 0 0 0 1
Neighs:    0 ave 0 max 0 min
Histogram: 2 0 0 0 0 0 0 0 0 0
FullNghs:  26520 ave 53040 max 0 min
Histogram: 1 0 0 0 0 0 0 0 0 1

Total # of neighbors = 53040
Ave neighs/atom = 78
Ave special neighs/atom = 0
Neighbor list builds = 0
Dangerous builds = 0







