LAMMPS data file. CGCMM style. atom_style full generated by VMD/TopoTools v1.5 on Sat Mar 21 08:03:49 AEDT 2015
 
 1656 atoms
 1204 bonds
 872 angles
 3 atom types
 1 bond types
 1 angle types

 0.0 26.0 xlo xhi
 0.0 26.0 ylo yhi
 0.0 26.0 zlo zhi


# Pair Coeffs
#
# 1  1
# 2  2
# 3  3

# Bond Coeffs
#
# 1  

# Angle Coeffs
#
# 1  unknown

# Dihedral Coeffs
#
# 1  unknown

 Masses

 1 12.011000 # 1
 2 15.999400 # 2
 3 1.008000 # 3

 Atoms

1 1 1 0.000000 9.014000 10.233000 5.739000 # 1 C60
2 1 1 0.000000 10.236000 10.720000 6.231000 # 1 C60
3 1 1 0.000000 11.292000 9.827000 6.507000 # 1 C60
4 1 1 0.000000 11.122000 8.450000 6.290000 # 1 C60
5 1 1 0.000000 9.895000 7.960000 5.795000 # 1 C60
6 1 1 0.000000 8.843000 8.850000 5.520000 # 1 C60
7 1 1 0.000000 7.981000 10.985000 6.321000 # 1 C60
8 1 1 0.000000 8.564000 11.937000 7.173000 # 1 C60
9 1 1 0.000000 9.958000 11.774000 7.118000 # 1 C60
10 1 1 0.000000 10.734000 11.938000 8.284000 # 1 C60
11 1 1 0.000000 12.065000 9.991000 7.668000 # 1 C60
12 1 1 0.000000 11.790000 7.762000 7.317000 # 1 C60
13 1 1 0.000000 11.234000 6.582000 7.853000 # 1 C60
14 1 1 0.000000 10.012000 6.095000 7.361000 # 1 C60
15 1 1 0.000000 9.341000 6.785000 6.330000 # 1 C60
16 1 1 0.000000 7.947000 6.949000 6.385000 # 1 C60
17 1 1 0.000000 7.639000 8.225000 5.885000 # 1 C60
18 1 1 0.000000 6.602000 8.980000 6.470000 # 1 C60
19 1 1 0.000000 6.772000 10.357000 6.687000 # 1 C60
20 1 1 0.000000 7.940000 12.266000 8.395000 # 1 C60
21 1 1 0.000000 6.737000 11.641000 8.759000 # 1 C60
22 1 1 0.000000 6.151000 10.685000 7.904000 # 1 C60
23 1 1 0.000000 5.597000 9.510000 8.438000 # 1 C60
24 1 1 0.000000 5.875000 8.456000 7.552000 # 1 C60
25 1 1 0.000000 6.184000 7.175000 8.054000 # 1 C60
26 1 1 0.000000 7.218000 6.423000 7.472000 # 1 C60
27 1 1 0.000000 7.886000 5.735000 8.499000 # 1 C60
28 1 1 0.000000 9.286000 5.571000 8.443000 # 1 C60
29 1 1 0.000000 12.373000 8.715000 8.169000 # 1 C60
30 1 1 0.000000 10.018000 7.016000 11.678000 # 1 C60
31 1 1 0.000000 11.227000 7.644000 11.312000 # 1 C60
32 1 1 0.000000 11.398000 9.021000 11.530000 # 1 C60
33 1 1 0.000000 10.360000 9.776000 12.114000 # 1 C60
34 1 1 0.000000 9.156000 9.151000 12.479000 # 1 C60
35 1 1 0.000000 7.763000 7.281000 11.768000 # 1 C60
36 1 1 0.000000 8.041000 6.227000 10.882000 # 1 C60
37 1 1 0.000000 9.435000 6.064000 10.826000 # 1 C60
38 1 1 0.000000 10.059000 5.735000 9.605000 # 1 C60
39 1 1 0.000000 11.263000 6.360000 9.240000 # 1 C60
40 1 1 0.000000 11.848000 7.316000 10.096000 # 1 C60
41 1 1 0.000000 12.124000 9.545000 10.447000 # 1 C60
42 1 1 0.000000 11.815000 10.826000 9.945000 # 1 C60
43 1 1 0.000000 10.781000 11.578000 10.527000 # 1 C60
44 1 1 0.000000 10.052000 11.052000 11.614000 # 1 C60
45 1 1 0.000000 8.658000 11.216000 11.669000 # 1 C60
46 1 1 0.000000 8.104000 10.041000 12.204000 # 1 C60
47 1 1 0.000000 6.877000 9.551000 11.710000 # 1 C60
48 1 1 0.000000 6.707000 8.174000 11.492000 # 1 C60
49 1 1 0.000000 7.265000 6.063000 9.716000 # 1 C60
50 1 1 0.000000 6.213000 6.952000 9.441000 # 1 C60
51 1 1 0.000000 5.934000 8.010000 10.331000 # 1 C60
52 1 1 0.000000 5.626000 9.286000 9.831000 # 1 C60
53 1 1 0.000000 6.209000 10.239000 10.683000 # 1 C60
54 1 1 0.000000 6.766000 11.419000 10.146000 # 1 C60
55 1 1 0.000000 7.988000 11.906000 10.638000 # 1 C60
56 1 1 0.000000 8.714000 12.430000 9.556000 # 1 C60
57 1 1 0.000000 10.113000 12.266000 9.500000 # 1 C60
58 1 1 0.000000 12.402000 8.491000 9.561000 # 1 C60
59 1 1 0.000000 11.786000 11.048000 8.558000 # 1 C60
60 1 1 0.000000 8.985000 7.768000 12.261000 # 1 C60
61 2 1 0.000000 18.014000 19.233000 14.739000 # 1 C60
62 2 1 0.000000 19.236000 19.719999 15.231000 # 1 C60
63 2 1 0.000000 20.292000 18.827000 15.507000 # 1 C60
64 2 1 0.000000 20.122000 17.450001 15.290000 # 1 C60
65 2 1 0.000000 18.895000 16.959999 14.795000 # 1 C60
66 2 1 0.000000 17.843000 17.850000 14.520000 # 1 C60
67 2 1 0.000000 16.981001 19.985001 15.321000 # 1 C60
68 2 1 0.000000 17.563999 20.937000 16.173000 # 1 C60
69 2 1 0.000000 18.958000 20.774000 16.118000 # 1 C60
70 2 1 0.000000 19.733999 20.938000 17.284000 # 1 C60
71 2 1 0.000000 21.065001 18.990999 16.667999 # 1 C60
72 2 1 0.000000 20.790001 16.761999 16.316999 # 1 C60
73 2 1 0.000000 20.233999 15.582000 16.853001 # 1 C60
74 2 1 0.000000 19.011999 15.095000 16.361000 # 1 C60
75 2 1 0.000000 18.341000 15.785000 15.330000 # 1 C60
76 2 1 0.000000 16.947001 15.949000 15.385000 # 1 C60
77 2 1 0.000000 16.639000 17.225000 14.885000 # 1 C60
78 2 1 0.000000 15.602000 17.980000 15.470000 # 1 C60
79 2 1 0.000000 15.772000 19.357000 15.687000 # 1 C60
80 2 1 0.000000 16.940001 21.266001 17.395000 # 1 C60
81 2 1 0.000000 15.737000 20.641001 17.759001 # 1 C60
82 2 1 0.000000 15.151000 19.684999 16.903999 # 1 C60
83 2 1 0.000000 14.597000 18.510000 17.438000 # 1 C60
84 2 1 0.000000 14.875000 17.455999 16.552000 # 1 C60
85 2 1 0.000000 15.184000 16.174999 17.054001 # 1 C60
86 2 1 0.000000 16.218000 15.423000 16.472000 # 1 C60
87 2 1 0.000000 16.886000 14.735000 17.499001 # 1 C60
88 2 1 0.000000 18.285999 14.571000 17.443001 # 1 C60
89 2 1 0.000000 21.372999 17.715000 17.169001 # 1 C60
90 2 1 0.000000 19.018000 16.016001 20.677999 # 1 C60
91 2 1 0.000000 20.226999 16.643999 20.312000 # 1 C60
92 2 1 0.000000 20.398001 18.021000 20.530001 # 1 C60
93 2 1 0.000000 19.360001 18.775999 21.114000 # 1 C60
94 2 1 0.000000 18.156000 18.150999 21.479000 # 1 C60
95 2 1 0.000000 16.763000 16.281000 20.768000 # 1 C60
96 2 1 0.000000 17.041000 15.227000 19.882000 # 1 C60
97 2 1 0.000000 18.434999 15.064000 19.826000 # 1 C60
98 2 1 0.000000 19.059000 14.735000 18.605000 # 1 C60
99 2 1 0.000000 20.263000 15.360000 18.240000 # 1 C60
100 2 1 0.000000 20.848000 16.316000 19.096001 # 1 C60
101 2 1 0.000000 21.124001 18.545000 19.447001 # 1 C60
102 2 1 0.000000 20.815001 19.826000 18.945000 # 1 C60
103 2 1 0.000000 19.781000 20.577999 19.527000 # 1 C60
104 2 1 0.000000 19.052000 20.052000 20.614000 # 1 C60
105 2 1 0.000000 17.658001 20.216000 20.669001 # 1 C60
106 2 1 0.000000 17.104000 19.041000 21.204000 # 1 C60
107 2 1 0.000000 15.877000 18.551001 20.709999 # 1 C60
108 2 1 0.000000 15.707000 17.174000 20.492001 # 1 C60
109 2 1 0.000000 16.264999 15.063000 18.716000 # 1 C60
110 2 1 0.000000 15.213000 15.952000 18.441000 # 1 C60
111 2 1 0.000000 14.934000 17.010000 19.330999 # 1 C60
112 2 1 0.000000 14.626000 18.285999 18.830999 # 1 C60
113 2 1 0.000000 15.209000 19.239000 19.683001 # 1 C60
114 2 1 0.000000 15.766000 20.419001 19.146000 # 1 C60
115 2 1 0.000000 16.988001 20.906000 19.638000 # 1 C60
116 2 1 0.000000 17.714001 21.430000 18.556000 # 1 C60
117 2 1 0.000000 19.113001 21.266001 18.500000 # 1 C60
118 2 1 0.000000 21.402000 17.490999 18.561001 # 1 C60
119 2 1 0.000000 20.785999 20.048000 17.558001 # 1 C60
120 2 1 0.000000 17.985001 16.768000 21.261000 # 1 C60
121 3 2 -0.834000 3.668000 10.082000 15.904000 # 2 TIP3
122 3 3 0.417000 3.224000 10.451000 15.101000 # 3 TIP3
123 3 3 0.417000 3.092000 10.379000 16.627001 # 3 TIP3
124 4 2 -0.834000 6.033000 4.876000 20.891001 # 2 TIP3
125 4 3 0.417000 6.078000 5.224000 21.798000 # 3 TIP3
126 4 3 0.417000 6.592000 4.088000 20.961000 # 3 TIP3
127 5 2 -0.834000 5.186000 16.695999 12.072000 # 2 TIP3
128 5 3 0.417000 6.083000 16.979000 11.816000 # 3 TIP3
129 5 3 0.417000 5.337000 15.832000 12.490000 # 3 TIP3
130 6 2 -0.834000 8.324000 13.811000 21.332001 # 2 TIP3
131 6 3 0.417000 8.633000 13.348000 22.112000 # 3 TIP3
132 6 3 0.417000 8.506000 13.116000 20.645000 # 3 TIP3
133 7 2 -0.834000 3.786000 16.318001 1.310000 # 2 TIP3
134 7 3 0.417000 3.781000 15.388000 1.196000 # 3 TIP3
135 7 3 0.417000 4.528000 16.580000 0.781000 # 3 TIP3
136 8 2 -0.834000 6.205000 6.991000 18.441999 # 2 TIP3
137 8 3 0.417000 6.782000 7.347000 19.152000 # 3 TIP3
138 8 3 0.417000 5.309000 7.062000 18.799999 # 3 TIP3
139 9 2 -0.834000 16.125999 14.701000 4.577000 # 2 TIP3
140 9 3 0.417000 16.070000 14.272000 3.726000 # 3 TIP3
141 9 3 0.417000 16.805000 15.454000 4.445000 # 3 TIP3
142 10 2 -0.834000 2.750000 8.844000 9.629000 # 2 TIP3
143 10 3 0.417000 2.110000 8.290000 9.998000 # 3 TIP3
144 10 3 0.417000 2.164000 9.245000 8.962000 # 3 TIP3
145 11 2 -0.834000 3.935000 16.195000 22.108999 # 2 TIP3
146 11 3 0.417000 4.870000 16.034000 21.985001 # 3 TIP3
147 11 3 0.417000 3.655000 15.367000 22.580999 # 3 TIP3
148 12 2 -0.834000 10.674000 8.909000 4.986000 # 2 TIP3
149 12 3 0.417000 10.998000 8.871000 5.932000 # 3 TIP3
150 12 3 0.417000 9.748000 9.270000 5.075000 # 3 TIP3
151 13 2 -0.834000 0.002000 5.667000 14.591000 # 2 TIP3
152 13 3 0.417000 0.483000 5.990000 13.830000 # 3 TIP3
153 13 3 0.417000 0.608000 5.781000 15.347000 # 3 TIP3
154 14 2 -0.834000 9.882000 9.156000 14.916000 # 2 TIP3
155 14 3 0.417000 9.574000 9.753000 15.597000 # 3 TIP3
156 14 3 0.417000 10.021000 8.264000 15.289000 # 3 TIP3
157 15 2 -0.834000 1.661000 6.681000 1.943000 # 2 TIP3
158 15 3 0.417000 1.943000 5.739000 1.981000 # 3 TIP3
159 15 3 0.417000 0.778000 6.599000 1.483000 # 3 TIP3
160 16 2 -0.834000 4.821000 20.603001 11.239000 # 2 TIP3
161 16 3 0.417000 5.466000 20.782000 11.963000 # 3 TIP3
162 16 3 0.417000 5.384000 20.914000 10.456000 # 3 TIP3
163 17 2 -0.834000 15.022000 20.855000 12.831000 # 2 TIP3
164 17 3 0.417000 14.222000 20.809000 13.292000 # 3 TIP3
165 17 3 0.417000 14.673000 21.056999 11.918000 # 3 TIP3
166 18 2 -0.834000 1.339000 3.782000 22.813999 # 2 TIP3
167 18 3 0.417000 0.839000 3.425000 22.087000 # 3 TIP3
168 18 3 0.417000 1.775000 3.077000 23.138000 # 3 TIP3
169 19 2 -0.834000 0.485000 15.137000 22.476000 # 2 TIP3
170 19 3 0.417000 0.644000 15.425000 23.349001 # 3 TIP3
171 19 3 0.417000 0.312000 15.961000 21.975000 # 3 TIP3
172 20 2 -0.834000 5.608000 23.917999 12.959000 # 2 TIP3
173 20 3 0.417000 4.840000 23.622000 12.545000 # 3 TIP3
174 20 3 0.417000 6.037000 24.336000 12.208000 # 3 TIP3
175 21 2 -0.834000 10.426000 7.604000 2.404000 # 2 TIP3
176 21 3 0.417000 10.761000 8.401000 1.994000 # 3 TIP3
177 21 3 0.417000 10.248000 7.889000 3.308000 # 3 TIP3
178 22 2 -0.834000 4.269000 22.752001 16.264999 # 2 TIP3
179 22 3 0.417000 4.149000 23.680000 15.888000 # 3 TIP3
180 22 3 0.417000 5.061000 22.796000 16.775999 # 3 TIP3
181 23 2 -0.834000 3.599000 13.689000 23.583000 # 2 TIP3
182 23 3 0.417000 3.430000 12.876000 24.062000 # 3 TIP3
183 23 3 0.417000 4.561000 13.769000 23.660999 # 3 TIP3
184 24 2 -0.834000 22.572001 6.242000 3.478000 # 2 TIP3
185 24 3 0.417000 21.705000 5.845000 3.830000 # 3 TIP3
186 24 3 0.417000 22.951000 5.659000 2.858000 # 3 TIP3
187 25 2 -0.834000 10.926000 5.365000 1.018000 # 2 TIP3
188 25 3 0.417000 11.138000 4.769000 1.754000 # 3 TIP3
189 25 3 0.417000 10.657000 6.212000 1.493000 # 3 TIP3
190 26 2 -0.834000 8.647000 4.314000 19.278000 # 2 TIP3
191 26 3 0.417000 7.964000 3.611000 19.326000 # 3 TIP3
192 26 3 0.417000 8.043000 5.064000 19.153000 # 3 TIP3
193 27 2 -0.834000 8.381000 17.319000 23.275000 # 2 TIP3
194 27 3 0.417000 7.516000 17.340000 23.695000 # 3 TIP3
195 27 3 0.417000 8.431000 18.263000 23.009001 # 3 TIP3
196 28 2 -0.834000 4.342000 11.388000 25.271000 # 2 TIP3
197 28 3 0.417000 4.842000 10.697000 25.677999 # 3 TIP3
198 28 3 0.417000 4.903000 12.148000 25.577999 # 3 TIP3
199 29 2 -0.834000 4.299000 17.774000 7.169000 # 2 TIP3
200 29 3 0.417000 3.303000 17.802999 7.322000 # 3 TIP3
201 29 3 0.417000 4.533000 18.754999 6.924000 # 3 TIP3
202 30 2 -0.834000 8.892000 12.977000 5.321000 # 2 TIP3
203 30 3 0.417000 8.119000 12.478000 5.443000 # 3 TIP3
204 30 3 0.417000 9.342000 12.557000 4.536000 # 3 TIP3
205 31 2 -0.834000 2.708000 20.969000 24.504000 # 2 TIP3
206 31 3 0.417000 2.589000 20.945000 23.556000 # 3 TIP3
207 31 3 0.417000 3.123000 21.834999 24.549000 # 3 TIP3
208 32 2 -0.834000 2.174000 18.468000 2.212000 # 2 TIP3
209 32 3 0.417000 2.632000 17.628000 2.203000 # 3 TIP3
210 32 3 0.417000 2.931000 19.120001 2.281000 # 3 TIP3
211 33 2 -0.834000 13.612000 17.680000 18.622000 # 2 TIP3
212 33 3 0.417000 13.744000 17.414000 19.507999 # 3 TIP3
213 33 3 0.417000 14.526000 17.830999 18.347000 # 3 TIP3
214 34 2 -0.834000 1.287000 24.132000 23.737000 # 2 TIP3
215 34 3 0.417000 1.235000 23.924000 24.731001 # 3 TIP3
216 34 3 0.417000 2.088000 24.709000 23.639000 # 3 TIP3
217 35 2 -0.834000 15.414000 6.569000 2.501000 # 2 TIP3
218 35 3 0.417000 16.224001 6.858000 2.128000 # 3 TIP3
219 35 3 0.417000 14.808000 6.700000 1.671000 # 3 TIP3
220 36 2 -0.834000 7.060000 2.074000 19.830000 # 2 TIP3
221 36 3 0.417000 7.650000 1.619000 20.528000 # 3 TIP3
222 36 3 0.417000 6.148000 1.796000 20.035000 # 3 TIP3
223 37 2 -0.834000 13.891000 1.919000 2.992000 # 2 TIP3
224 37 3 0.417000 14.198000 2.681000 3.422000 # 3 TIP3
225 37 3 0.417000 13.212000 1.577000 3.578000 # 3 TIP3
226 38 2 -0.834000 9.078000 11.967000 12.734000 # 2 TIP3
227 38 3 0.417000 8.228000 11.561000 12.993000 # 3 TIP3
228 38 3 0.417000 9.512000 12.194000 13.560000 # 3 TIP3
229 39 2 -0.834000 10.282000 0.640000 2.053000 # 2 TIP3
230 39 3 0.417000 10.367000 0.959000 3.016000 # 3 TIP3
231 39 3 0.417000 9.743000 1.323000 1.667000 # 3 TIP3
232 40 2 -0.834000 4.618000 8.125000 7.777000 # 2 TIP3
233 40 3 0.417000 5.405000 7.919000 8.314000 # 3 TIP3
234 40 3 0.417000 4.002000 8.458000 8.422000 # 3 TIP3
235 41 2 -0.834000 3.403000 4.687000 9.815000 # 2 TIP3
236 41 3 0.417000 3.109000 5.272000 9.097000 # 3 TIP3
237 41 3 0.417000 3.817000 3.973000 9.327000 # 3 TIP3
238 42 2 -0.834000 3.276000 7.465000 19.325001 # 2 TIP3
239 42 3 0.417000 2.772000 6.991000 19.964001 # 3 TIP3
240 42 3 0.417000 3.604000 8.288000 19.753000 # 3 TIP3
241 43 2 -0.834000 9.978000 7.875000 24.948000 # 2 TIP3
242 43 3 0.417000 9.589000 7.626000 25.844999 # 3 TIP3
243 43 3 0.417000 10.436000 8.656000 25.187000 # 3 TIP3
244 44 2 -0.834000 3.119000 10.325000 13.158000 # 2 TIP3
245 44 3 0.417000 3.598000 10.900000 12.512000 # 3 TIP3
246 44 3 0.417000 3.440000 9.430000 12.962000 # 3 TIP3
247 45 2 -0.834000 2.378000 5.806000 16.253000 # 2 TIP3
248 45 3 0.417000 2.157000 6.161000 17.099001 # 3 TIP3
249 45 3 0.417000 3.301000 6.032000 16.125999 # 3 TIP3
250 46 2 -0.834000 6.382000 22.271000 2.319000 # 2 TIP3
251 46 3 0.417000 5.550000 22.035000 1.847000 # 3 TIP3
252 46 3 0.417000 6.859000 21.472000 2.192000 # 3 TIP3
253 47 2 -0.834000 4.017000 3.905000 19.417999 # 2 TIP3
254 47 3 0.417000 3.142000 4.042000 19.132000 # 3 TIP3
255 47 3 0.417000 4.582000 4.727000 19.295000 # 3 TIP3
256 48 2 -0.834000 2.344000 20.472000 21.631001 # 2 TIP3
257 48 3 0.417000 2.932000 20.820999 20.945000 # 3 TIP3
258 48 3 0.417000 1.467000 20.548000 21.138000 # 3 TIP3
259 49 2 -0.834000 20.613001 13.616000 11.066000 # 2 TIP3
260 49 3 0.417000 20.739000 13.959000 10.218000 # 3 TIP3
261 49 3 0.417000 19.618999 13.816000 11.250000 # 3 TIP3
262 50 2 -0.834000 1.787000 9.518000 24.514999 # 2 TIP3
263 50 3 0.417000 2.132000 9.575000 23.646000 # 3 TIP3
264 50 3 0.417000 1.860000 10.406000 24.787001 # 3 TIP3
265 51 2 -0.834000 14.526000 10.532000 20.136999 # 2 TIP3
266 51 3 0.417000 14.162000 9.733000 20.503000 # 3 TIP3
267 51 3 0.417000 14.466000 10.420000 19.194000 # 3 TIP3
268 52 2 -0.834000 5.573000 14.804000 19.090000 # 2 TIP3
269 52 3 0.417000 5.959000 15.339000 19.808001 # 3 TIP3
270 52 3 0.417000 5.869000 15.413000 18.330999 # 3 TIP3
271 53 2 -0.834000 16.283001 7.354000 22.781000 # 2 TIP3
272 53 3 0.417000 15.640000 8.058000 22.448999 # 3 TIP3
273 53 3 0.417000 15.973000 6.560000 22.379000 # 3 TIP3
274 54 2 -0.834000 22.872000 18.441000 16.788000 # 2 TIP3
275 54 3 0.417000 22.201000 17.864000 16.379000 # 3 TIP3
276 54 3 0.417000 22.334999 18.981001 17.424999 # 3 TIP3
277 55 2 -0.834000 5.458000 13.097000 4.589000 # 2 TIP3
278 55 3 0.417000 5.673000 13.019000 3.612000 # 3 TIP3
279 55 3 0.417000 4.899000 13.894000 4.657000 # 3 TIP3
280 56 2 -0.834000 4.552000 1.370000 20.330000 # 2 TIP3
281 56 3 0.417000 4.274000 2.194000 19.952999 # 3 TIP3
282 56 3 0.417000 4.235000 0.801000 19.570999 # 3 TIP3
283 57 2 -0.834000 4.594000 25.266001 15.200000 # 2 TIP3
284 57 3 0.417000 3.638000 25.500000 15.196000 # 3 TIP3
285 57 3 0.417000 4.758000 24.896999 14.312000 # 3 TIP3
286 58 2 -0.834000 5.160000 13.744000 7.954000 # 2 TIP3
287 58 3 0.417000 6.048000 13.422000 8.207000 # 3 TIP3
288 58 3 0.417000 5.008000 14.493000 8.528000 # 3 TIP3
289 59 2 -0.834000 10.390000 6.386000 18.827999 # 2 TIP3
290 59 3 0.417000 10.688000 6.484000 19.731001 # 3 TIP3
291 59 3 0.417000 9.844000 5.589000 18.921000 # 3 TIP3
292 60 2 -0.834000 1.678000 21.941999 1.035000 # 2 TIP3
293 60 3 0.417000 1.272000 21.280001 1.592000 # 3 TIP3
294 60 3 0.417000 1.498000 22.809000 1.493000 # 3 TIP3
295 61 2 -0.834000 9.630000 21.547001 3.000000 # 2 TIP3
296 61 3 0.417000 9.601000 22.471001 2.643000 # 3 TIP3
297 61 3 0.417000 9.287000 20.954000 2.312000 # 3 TIP3
298 62 2 -0.834000 2.344000 10.571000 2.624000 # 2 TIP3
299 62 3 0.417000 2.122000 10.753000 3.553000 # 3 TIP3
300 62 3 0.417000 2.947000 9.791000 2.617000 # 3 TIP3
301 63 2 -0.834000 0.823000 23.667999 2.888000 # 2 TIP3
302 63 3 0.417000 1.636000 23.316000 3.340000 # 3 TIP3
303 63 3 0.417000 0.253000 23.978001 3.640000 # 3 TIP3
304 64 2 -0.834000 13.220000 24.493999 13.092000 # 2 TIP3
305 64 3 0.417000 12.891000 25.382999 13.287000 # 3 TIP3
306 64 3 0.417000 13.056000 23.917999 13.853000 # 3 TIP3
307 65 2 -0.834000 2.710000 6.185000 7.540000 # 2 TIP3
308 65 3 0.417000 2.467000 6.236000 6.561000 # 3 TIP3
309 65 3 0.417000 3.410000 6.855000 7.580000 # 3 TIP3
310 66 2 -0.834000 6.911000 19.458000 17.334999 # 2 TIP3
311 66 3 0.417000 7.517000 20.118000 16.957001 # 3 TIP3
312 66 3 0.417000 6.315000 19.136000 16.587999 # 3 TIP3
313 67 2 -0.834000 16.191999 22.403000 3.782000 # 2 TIP3
314 67 3 0.417000 16.363001 22.881001 4.622000 # 3 TIP3
315 67 3 0.417000 16.427000 23.065001 3.086000 # 3 TIP3
316 68 2 -0.834000 13.540000 22.219999 2.748000 # 2 TIP3
317 68 3 0.417000 12.965000 22.475000 3.462000 # 3 TIP3
318 68 3 0.417000 14.428000 22.403999 3.074000 # 3 TIP3
319 69 2 -0.834000 8.181000 23.465000 7.637000 # 2 TIP3
320 69 3 0.417000 9.007000 23.937000 7.703000 # 3 TIP3
321 69 3 0.417000 7.517000 24.117001 7.312000 # 3 TIP3
322 70 2 -0.834000 10.929000 14.750000 5.718000 # 2 TIP3
323 70 3 0.417000 10.050000 14.541000 5.408000 # 3 TIP3
324 70 3 0.417000 11.401000 13.879000 5.717000 # 3 TIP3
325 71 2 -0.834000 2.086000 25.452000 18.194000 # 2 TIP3
326 71 3 0.417000 2.174000 25.923000 17.393999 # 3 TIP3
327 71 3 0.417000 1.272000 25.868999 18.604000 # 3 TIP3
328 72 2 -0.834000 23.330999 21.618999 18.069000 # 2 TIP3
329 72 3 0.417000 23.136999 22.516001 18.455999 # 3 TIP3
330 72 3 0.417000 22.663000 20.985001 18.450001 # 3 TIP3
331 73 2 -0.834000 0.747000 4.469000 10.579000 # 2 TIP3
332 73 3 0.417000 0.426000 3.568000 10.339000 # 3 TIP3
333 73 3 0.417000 1.505000 4.585000 9.990000 # 3 TIP3
334 74 2 -0.834000 5.356000 5.388000 16.046000 # 2 TIP3
335 74 3 0.417000 5.884000 6.064000 16.461000 # 3 TIP3
336 74 3 0.417000 5.592000 4.622000 16.537001 # 3 TIP3
337 75 2 -0.834000 10.704000 6.721000 15.883000 # 2 TIP3
338 75 3 0.417000 10.901000 6.912000 16.836000 # 3 TIP3
339 75 3 0.417000 10.127000 5.972000 15.998000 # 3 TIP3
340 76 2 -0.834000 2.189000 1.706000 24.878000 # 2 TIP3
341 76 3 0.417000 1.464000 1.091000 24.709999 # 3 TIP3
342 76 3 0.417000 2.125000 1.805000 25.900000 # 3 TIP3
343 77 2 -0.834000 11.763000 19.614000 9.958000 # 2 TIP3
344 77 3 0.417000 12.279000 20.405001 9.866000 # 3 TIP3
345 77 3 0.417000 12.435000 18.905001 9.901000 # 3 TIP3
346 78 2 -0.834000 7.027000 2.224000 13.411000 # 2 TIP3
347 78 3 0.417000 6.185000 2.801000 13.535000 # 3 TIP3
348 78 3 0.417000 6.692000 1.403000 13.742000 # 3 TIP3
349 79 2 -0.834000 17.812000 5.771000 5.876000 # 2 TIP3
350 79 3 0.417000 17.219999 6.316000 5.380000 # 3 TIP3
351 79 3 0.417000 17.551001 4.869000 5.669000 # 3 TIP3
352 80 2 -0.834000 4.028000 7.699000 12.776000 # 2 TIP3
353 80 3 0.417000 4.577000 7.193000 12.138000 # 3 TIP3
354 80 3 0.417000 3.171000 7.320000 12.544000 # 3 TIP3
355 81 2 -0.834000 22.132999 2.886000 19.843000 # 2 TIP3
356 81 3 0.417000 22.929001 2.596000 20.261999 # 3 TIP3
357 81 3 0.417000 21.486000 2.828000 20.561001 # 3 TIP3
358 82 2 -0.834000 12.493000 9.451000 2.215000 # 2 TIP3
359 82 3 0.417000 12.908000 9.840000 2.987000 # 3 TIP3
360 82 3 0.417000 12.982000 8.641000 2.039000 # 3 TIP3
361 83 2 -0.834000 1.838000 3.206000 15.398000 # 2 TIP3
362 83 3 0.417000 2.201000 4.081000 15.545000 # 3 TIP3
363 83 3 0.417000 2.117000 2.999000 14.422000 # 3 TIP3
364 84 2 -0.834000 16.132999 12.593000 16.908001 # 2 TIP3
365 84 3 0.417000 15.352000 12.769000 16.391001 # 3 TIP3
366 84 3 0.417000 15.887000 11.876000 17.511000 # 3 TIP3
367 85 2 -0.834000 1.899000 11.624000 17.893000 # 2 TIP3
368 85 3 0.417000 1.139000 11.678000 17.305000 # 3 TIP3
369 85 3 0.417000 2.258000 12.535000 17.855000 # 3 TIP3
370 86 2 -0.834000 9.220000 13.904000 17.340000 # 2 TIP3
371 86 3 0.417000 10.062000 14.198000 17.738001 # 3 TIP3
372 86 3 0.417000 9.394000 12.999000 17.101999 # 3 TIP3
373 87 2 -0.834000 3.458000 9.868000 22.419001 # 2 TIP3
374 87 3 0.417000 4.398000 10.016000 22.653999 # 3 TIP3
375 87 3 0.417000 3.448000 10.189000 21.495001 # 3 TIP3
376 88 2 -0.834000 18.441000 16.134001 3.840000 # 2 TIP3
377 88 3 0.417000 18.610001 16.488001 2.968000 # 3 TIP3
378 88 3 0.417000 19.113001 15.407000 3.961000 # 3 TIP3
379 89 2 -0.834000 15.430000 3.274000 7.407000 # 2 TIP3
380 89 3 0.417000 15.458000 2.741000 8.157000 # 3 TIP3
381 89 3 0.417000 15.933000 2.740000 6.770000 # 3 TIP3
382 90 2 -0.834000 13.134000 4.535000 6.559000 # 2 TIP3
383 90 3 0.417000 12.434000 3.932000 6.938000 # 3 TIP3
384 90 3 0.417000 13.959000 4.162000 6.965000 # 3 TIP3
385 91 2 -0.834000 5.708000 4.426000 24.417999 # 2 TIP3
386 91 3 0.417000 6.002000 4.703000 25.299999 # 3 TIP3
387 91 3 0.417000 5.157000 5.168000 24.143999 # 3 TIP3
388 92 2 -0.834000 10.295000 14.066000 14.320000 # 2 TIP3
389 92 3 0.417000 10.592000 14.067000 15.226000 # 3 TIP3
390 92 3 0.417000 9.322000 14.226000 14.350000 # 3 TIP3
391 93 2 -0.834000 16.007999 17.797001 11.410000 # 2 TIP3
392 93 3 0.417000 16.695000 17.702000 10.684000 # 3 TIP3
393 93 3 0.417000 15.186000 17.521000 10.942000 # 3 TIP3
394 94 2 -0.834000 15.398000 1.552000 18.246000 # 2 TIP3
395 94 3 0.417000 16.016001 1.951000 17.566000 # 3 TIP3
396 94 3 0.417000 14.574000 2.011000 18.108999 # 3 TIP3
397 95 2 -0.834000 7.830000 19.750999 1.995000 # 2 TIP3
398 95 3 0.417000 7.257000 19.870001 1.247000 # 3 TIP3
399 95 3 0.417000 8.329000 18.923000 1.885000 # 3 TIP3
400 96 2 -0.834000 15.027000 11.249000 9.806000 # 2 TIP3
401 96 3 0.417000 15.636000 10.953000 9.104000 # 3 TIP3
402 96 3 0.417000 14.929000 12.194000 9.545000 # 3 TIP3
403 97 2 -0.834000 19.530001 19.813000 24.413000 # 2 TIP3
404 97 3 0.417000 20.399000 20.250999 24.330999 # 3 TIP3
405 97 3 0.417000 19.754999 18.875999 24.417999 # 3 TIP3
406 98 2 -0.834000 10.274000 11.448000 20.959000 # 2 TIP3
407 98 3 0.417000 10.893000 11.073000 21.653999 # 3 TIP3
408 98 3 0.417000 10.344000 10.891000 20.238001 # 3 TIP3
409 99 2 -0.834000 11.473000 6.075000 21.702000 # 2 TIP3
410 99 3 0.417000 12.046000 5.667000 22.431000 # 3 TIP3
411 99 3 0.417000 10.554000 5.939000 22.100000 # 3 TIP3
412 100 2 -0.834000 8.318000 15.284000 25.150000 # 2 TIP3
413 100 3 0.417000 8.990000 15.079000 25.736000 # 3 TIP3
414 100 3 0.417000 8.736000 15.953000 24.563999 # 3 TIP3
415 101 2 -0.834000 21.007999 3.270000 15.173000 # 2 TIP3
416 101 3 0.417000 20.389999 4.036000 15.084000 # 3 TIP3
417 101 3 0.417000 21.768000 3.592000 14.749000 # 3 TIP3
418 102 2 -0.834000 6.800000 16.659000 17.184000 # 2 TIP3
419 102 3 0.417000 7.143000 16.649000 16.327000 # 3 TIP3
420 102 3 0.417000 7.109000 17.502001 17.568001 # 3 TIP3
421 103 2 -0.834000 5.780000 17.516001 24.024000 # 2 TIP3
422 103 3 0.417000 5.106000 17.326000 23.341000 # 3 TIP3
423 103 3 0.417000 5.750000 18.485001 24.094000 # 3 TIP3
424 104 2 -0.834000 14.603000 18.110001 3.213000 # 2 TIP3
425 104 3 0.417000 14.275000 17.655001 3.963000 # 3 TIP3
426 104 3 0.417000 13.842000 18.606001 2.878000 # 3 TIP3
427 105 2 -0.834000 4.753000 20.139000 5.475000 # 2 TIP3
428 105 3 0.417000 4.769000 21.052999 5.846000 # 3 TIP3
429 105 3 0.417000 5.663000 20.031000 5.201000 # 3 TIP3
430 106 2 -0.834000 1.615000 17.355000 14.355000 # 2 TIP3
431 106 3 0.417000 1.225000 16.480000 14.420000 # 3 TIP3
432 106 3 0.417000 0.859000 17.983999 14.051000 # 3 TIP3
433 107 2 -0.834000 11.087000 15.787000 20.150000 # 2 TIP3
434 107 3 0.417000 11.221000 14.877000 19.698000 # 3 TIP3
435 107 3 0.417000 11.936000 15.940000 20.591000 # 3 TIP3
436 108 2 -0.834000 22.577999 23.665001 23.229000 # 2 TIP3
437 108 3 0.417000 23.396000 23.499001 22.733999 # 3 TIP3
438 108 3 0.417000 21.920000 23.775000 22.561001 # 3 TIP3
439 109 2 -0.834000 9.784000 18.059999 16.438999 # 2 TIP3
440 109 3 0.417000 10.576000 18.166000 15.922000 # 3 TIP3
441 109 3 0.417000 9.941000 18.584000 17.233999 # 3 TIP3
442 110 2 -0.834000 2.369000 19.620001 10.838000 # 2 TIP3
443 110 3 0.417000 2.051000 19.424999 11.701000 # 3 TIP3
444 110 3 0.417000 3.347000 19.716999 10.923000 # 3 TIP3
445 111 2 -0.834000 15.158000 15.218000 1.453000 # 2 TIP3
446 111 3 0.417000 15.286000 16.122999 1.160000 # 3 TIP3
447 111 3 0.417000 14.175000 15.219000 1.587000 # 3 TIP3
448 112 2 -0.834000 7.929000 9.601000 4.322000 # 2 TIP3
449 112 3 0.417000 7.364000 10.340000 3.912000 # 3 TIP3
450 112 3 0.417000 7.318000 9.011000 4.820000 # 3 TIP3
451 113 2 -0.834000 11.585000 23.121000 19.455000 # 2 TIP3
452 113 3 0.417000 12.413000 23.205000 19.982000 # 3 TIP3
453 113 3 0.417000 10.816000 23.266001 20.094999 # 3 TIP3
454 114 2 -0.834000 13.755000 25.794001 9.520000 # 2 TIP3
455 114 3 0.417000 12.826000 25.669001 9.767000 # 3 TIP3
456 114 3 0.417000 14.148000 25.750999 10.374000 # 3 TIP3
457 115 2 -0.834000 21.371000 17.885000 5.875000 # 2 TIP3
458 115 3 0.417000 20.731001 17.190001 6.201000 # 3 TIP3
459 115 3 0.417000 22.157000 17.771000 6.379000 # 3 TIP3
460 116 2 -0.834000 21.052000 14.490000 4.292000 # 2 TIP3
461 116 3 0.417000 20.664000 14.025000 5.009000 # 3 TIP3
462 116 3 0.417000 21.791000 15.006000 4.747000 # 3 TIP3
463 117 2 -0.834000 8.788000 3.294000 24.627001 # 2 TIP3
464 117 3 0.417000 7.874000 3.570000 24.750000 # 3 TIP3
465 117 3 0.417000 9.171000 3.909000 24.018999 # 3 TIP3
466 118 2 -0.834000 3.320000 1.439000 3.693000 # 2 TIP3
467 118 3 0.417000 3.018000 1.263000 2.795000 # 3 TIP3
468 118 3 0.417000 4.218000 1.737000 3.533000 # 3 TIP3
469 119 2 -0.834000 16.096001 8.405000 10.628000 # 2 TIP3
470 119 3 0.417000 16.084999 9.390000 10.715000 # 3 TIP3
471 119 3 0.417000 16.077000 8.348000 9.621000 # 3 TIP3
472 120 2 -0.834000 8.378000 22.836000 14.074000 # 2 TIP3
473 120 3 0.417000 9.127000 23.084999 13.478000 # 3 TIP3
474 120 3 0.417000 7.806000 23.652000 14.112000 # 3 TIP3
475 121 2 -0.834000 18.479000 3.089000 1.378000 # 2 TIP3
476 121 3 0.417000 17.535999 3.208000 1.574000 # 3 TIP3
477 121 3 0.417000 18.601999 2.140000 1.197000 # 3 TIP3
478 122 2 -0.834000 15.529000 5.982000 8.519000 # 2 TIP3
479 122 3 0.417000 16.398001 5.632000 8.812000 # 3 TIP3
480 122 3 0.417000 15.223000 5.333000 7.867000 # 3 TIP3
481 123 2 -0.834000 4.539000 2.605000 8.295000 # 2 TIP3
482 123 3 0.417000 5.460000 2.702000 8.123000 # 3 TIP3
483 123 3 0.417000 4.434000 1.616000 8.363000 # 3 TIP3
484 124 2 -0.834000 20.028000 7.080000 9.022000 # 2 TIP3
485 124 3 0.417000 20.674999 7.715000 9.082000 # 3 TIP3
486 124 3 0.417000 19.385000 7.573000 8.527000 # 3 TIP3
487 125 2 -0.834000 22.010000 11.028000 18.447001 # 2 TIP3
488 125 3 0.417000 22.719000 11.061000 17.701000 # 3 TIP3
489 125 3 0.417000 22.590000 11.140000 19.219999 # 3 TIP3
490 126 2 -0.834000 18.350000 6.978000 17.615000 # 2 TIP3
491 126 3 0.417000 18.415001 7.291000 16.702000 # 3 TIP3
492 126 3 0.417000 17.398001 7.159000 17.784000 # 3 TIP3
493 127 2 -0.834000 8.883000 21.580999 5.760000 # 2 TIP3
494 127 3 0.417000 8.705000 22.232000 6.446000 # 3 TIP3
495 127 3 0.417000 9.357000 22.007999 5.077000 # 3 TIP3
496 128 2 -0.834000 19.399000 12.364000 1.980000 # 2 TIP3
497 128 3 0.417000 19.715000 11.499000 1.598000 # 3 TIP3
498 128 3 0.417000 19.091000 12.059000 2.846000 # 3 TIP3
499 129 2 -0.834000 24.165001 6.819000 5.775000 # 2 TIP3
500 129 3 0.417000 23.867001 6.610000 4.873000 # 3 TIP3
501 129 3 0.417000 23.362000 7.177000 6.251000 # 3 TIP3
502 130 2 -0.834000 12.793000 13.364000 12.168000 # 2 TIP3
503 130 3 0.417000 12.787000 13.548000 11.223000 # 3 TIP3
504 130 3 0.417000 11.995000 13.794000 12.399000 # 3 TIP3
505 131 2 -0.834000 0.182000 23.403000 21.361000 # 2 TIP3
506 131 3 0.417000 0.301000 23.584999 22.346001 # 3 TIP3
507 131 3 0.417000 1.001000 22.867001 21.219999 # 3 TIP3
508 132 2 -0.834000 11.347000 16.007000 23.148001 # 2 TIP3
509 132 3 0.417000 11.779000 15.126000 23.087000 # 3 TIP3
510 132 3 0.417000 10.586000 15.923000 22.580999 # 3 TIP3
511 133 2 -0.834000 10.129000 17.485001 6.550000 # 2 TIP3
512 133 3 0.417000 9.231000 17.466999 6.920000 # 3 TIP3
513 133 3 0.417000 10.108000 16.702000 5.985000 # 3 TIP3
514 134 2 -0.834000 22.412001 7.606000 12.665000 # 2 TIP3
515 134 3 0.417000 21.851999 7.980000 13.388000 # 3 TIP3
516 134 3 0.417000 21.958000 6.769000 12.493000 # 3 TIP3
517 135 2 -0.834000 4.654000 5.717000 5.023000 # 2 TIP3
518 135 3 0.417000 5.059000 5.126000 4.395000 # 3 TIP3
519 135 3 0.417000 5.409000 5.785000 5.634000 # 3 TIP3
520 136 2 -0.834000 12.336000 14.905000 9.350000 # 2 TIP3
521 136 3 0.417000 11.849000 15.588000 8.883000 # 3 TIP3
522 136 3 0.417000 11.568000 14.375000 9.770000 # 3 TIP3
523 137 2 -0.834000 5.187000 1.699000 24.688000 # 2 TIP3
524 137 3 0.417000 5.496000 2.593000 24.739000 # 3 TIP3
525 137 3 0.417000 4.169000 1.873000 24.767000 # 3 TIP3
526 138 2 -0.834000 5.488000 14.255000 13.212000 # 2 TIP3
527 138 3 0.417000 6.279000 14.126000 13.709000 # 3 TIP3
528 138 3 0.417000 4.864000 13.991000 13.878000 # 3 TIP3
529 139 2 -0.834000 12.598000 13.158000 23.181000 # 2 TIP3
530 139 3 0.417000 12.169000 13.206000 24.069000 # 3 TIP3
531 139 3 0.417000 13.516000 13.023000 23.462999 # 3 TIP3
532 140 2 -0.834000 3.686000 8.353000 3.401000 # 2 TIP3