LAMMPS data file. CGCMM style. atom_style full generated by VMD/TopoTools v1.5 on Sat May 09 14:23:06 AEST 2015
 504 atoms
 468 bonds
 864 angles
 972 dihedrals
 0 impropers
 2 atom types
 2 bond types
 3 angle types
 2 dihedral types
 0 improper types
 -12.499945 12.465654  xlo xhi
 -8.322223 8.676079  ylo yhi
 -9.954452 10.185450  zlo zhi

# Pair Coeffs
#
# 1  CT
# 2  HC

# Bond Coeffs
#
# 1  CT-CT
# 2  CT-HC

# Angle Coeffs
#
# 1  CT-CT-CT
# 2  CT-CT-HC
# 3  HC-CT-HC

# Dihedral Coeffs
#
# 1  CT-CT-CT-HC
# 2  HC-CT-CT-HC

 Masses

 1 12.011000 # CT
 2 1.008000 # HC

 Atoms

1 1 1 -0.180000 -8.567245 -5.760673 -7.924302 # CT ALK
2 1 2 0.060000 -8.716245 -6.610673 -8.649302 # HC ALK
3 1 2 0.060000 -7.542245 -5.635673 -7.835301 # HC ALK
4 1 2 0.060000 -8.865245 -4.761674 -8.295301 # HC ALK
5 1 1 -0.060000 -9.209245 -5.994674 -6.558300 # CT ALK
6 1 1 -0.180000 -10.716245 -6.173673 -6.773301 # CT ALK
7 1 2 0.060000 -11.168244 -5.220674 -7.051301 # HC ALK
8 1 2 0.060000 -11.199244 -6.371673 -5.863301 # HC ALK
9 1 2 0.060000 -10.978246 -7.064674 -7.409302 # HC ALK
10 1 2 0.060000 -8.825246 -6.951673 -6.193301 # HC ALK
11 1 1 -0.180000 -8.897244 -4.856674 -5.552302 # CT ALK
12 1 2 0.060000 -9.307244 -5.154674 -4.546301 # HC ALK
13 1 2 0.060000 -9.297246 -3.913673 -5.961300 # HC ALK
14 1 2 0.060000 -7.780246 -4.854673 -5.373301 # HC ALK
15 1 1 -0.180000 -8.567245 -5.760673 -1.211000 # CT ALK
16 1 2 0.060000 -8.716245 -6.610673 -1.936001 # HC ALK
17 1 2 0.060000 -7.542245 -5.635673 -1.122000 # HC ALK
18 1 2 0.060000 -8.865245 -4.761674 -1.582001 # HC ALK
19 1 1 -0.060000 -9.209245 -5.994674 0.155001 # CT ALK
20 1 1 -0.180000 -10.716245 -6.173673 -0.059999 # CT ALK
21 1 2 0.060000 -11.168244 -5.220674 -0.337999 # HC ALK
22 1 2 0.060000 -11.199244 -6.371673 0.850000 # HC ALK
23 1 2 0.060000 -10.978246 -7.064674 -0.696001 # HC ALK
24 1 2 0.060000 -8.825246 -6.951673 0.520000 # HC ALK
25 1 1 -0.180000 -8.897244 -4.856674 1.160999 # CT ALK
26 1 2 0.060000 -9.307244 -5.154674 2.167000 # HC ALK
27 1 2 0.060000 -9.297246 -3.913673 0.752001 # HC ALK
28 1 2 0.060000 -7.780246 -4.854673 1.340000 # HC ALK
29 1 1 -0.180000 -8.567245 -5.760673 5.502301 # CT ALK
30 1 2 0.060000 -8.716245 -6.610673 4.777300 # HC ALK
31 1 2 0.060000 -7.542245 -5.635673 5.591301 # HC ALK
32 1 2 0.060000 -8.865245 -4.761674 5.131300 # HC ALK
33 1 1 -0.060000 -9.209245 -5.994674 6.868302 # CT ALK
34 1 1 -0.180000 -10.716245 -6.173673 6.653302 # CT ALK
35 1 2 0.060000 -11.168244 -5.220674 6.375302 # HC ALK
36 1 2 0.060000 -11.199244 -6.371673 7.563302 # HC ALK
37 1 2 0.060000 -10.978246 -7.064674 6.017300 # HC ALK
38 1 2 0.060000 -8.825246 -6.951673 7.233302 # HC ALK
39 1 1 -0.180000 -8.897244 -4.856674 7.874300 # CT ALK
40 1 2 0.060000 -9.307244 -5.154674 8.880301 # HC ALK
41 1 2 0.060000 -9.297246 -3.913673 7.465302 # HC ALK
42 1 2 0.060000 -7.780246 -4.854673 8.053301 # HC ALK
43 1 1 -0.180000 -8.567245 -0.094572 -7.924302 # CT ALK
44 1 2 0.060000 -8.716245 -0.944572 -8.649302 # HC ALK
45 1 2 0.060000 -7.542245 0.030428 -7.835301 # HC ALK
46 1 2 0.060000 -8.865245 0.904427 -8.295301 # HC ALK
47 1 1 -0.060000 -9.209245 -0.328573 -6.558300 # CT ALK
48 1 1 -0.180000 -10.716245 -0.507572 -6.773301 # CT ALK
49 1 2 0.060000 -11.168244 0.445427 -7.051301 # HC ALK
50 1 2 0.060000 -11.199244 -0.705572 -5.863301 # HC ALK
51 1 2 0.060000 -10.978246 -1.398573 -7.409302 # HC ALK
52 1 2 0.060000 -8.825246 -1.285572 -6.193301 # HC ALK
53 1 1 -0.180000 -8.897244 0.809427 -5.552302 # CT ALK
54 1 2 0.060000 -9.307244 0.511427 -4.546301 # HC ALK
55 1 2 0.060000 -9.297246 1.752428 -5.961300 # HC ALK
56 1 2 0.060000 -7.780246 0.811428 -5.373301 # HC ALK
57 1 1 -0.180000 -8.567245 -0.094572 -1.211000 # CT ALK
58 1 2 0.060000 -8.716245 -0.944572 -1.936001 # HC ALK
59 1 2 0.060000 -7.542245 0.030428 -1.122000 # HC ALK
60 1 2 0.060000 -8.865245 0.904427 -1.582001 # HC ALK
61 1 1 -0.060000 -9.209245 -0.328573 0.155001 # CT ALK
62 1 1 -0.180000 -10.716245 -0.507572 -0.059999 # CT ALK
63 1 2 0.060000 -11.168244 0.445427 -0.337999 # HC ALK
64 1 2 0.060000 -11.199244 -0.705572 0.850000 # HC ALK
65 1 2 0.060000 -10.978246 -1.398573 -0.696001 # HC ALK
66 1 2 0.060000 -8.825246 -1.285572 0.520000 # HC ALK
67 1 1 -0.180000 -8.897244 0.809427 1.160999 # CT ALK
68 1 2 0.060000 -9.307244 0.511427 2.167000 # HC ALK
69 1 2 0.060000 -9.297246 1.752428 0.752001 # HC ALK
70 1 2 0.060000 -7.780246 0.811428 1.340000 # HC ALK
71 1 1 -0.180000 -8.567245 -0.094572 5.502301 # CT ALK
72 1 2 0.060000 -8.716245 -0.944572 4.777300 # HC ALK
73 1 2 0.060000 -7.542245 0.030428 5.591301 # HC ALK
74 1 2 0.060000 -8.865245 0.904427 5.131300 # HC ALK
75 1 1 -0.060000 -9.209245 -0.328573 6.868302 # CT ALK
76 1 1 -0.180000 -10.716245 -0.507572 6.653302 # CT ALK
77 1 2 0.060000 -11.168244 0.445427 6.375302 # HC ALK
78 1 2 0.060000 -11.199244 -0.705572 7.563302 # HC ALK
79 1 2 0.060000 -10.978246 -1.398573 6.017300 # HC ALK
80 1 2 0.060000 -8.825246 -1.285572 7.233302 # HC ALK
81 1 1 -0.180000 -8.897244 0.809427 7.874300 # CT ALK
82 1 2 0.060000 -9.307244 0.511427 8.880301 # HC ALK
83 1 2 0.060000 -9.297246 1.752428 7.465302 # HC ALK
84 1 2 0.060000 -7.780246 0.811428 8.053301 # HC ALK
85 1 1 -0.180000 -8.567245 5.571529 -7.924302 # CT ALK
86 1 2 0.060000 -8.716245 4.721529 -8.649302 # HC ALK
87 1 2 0.060000 -7.542245 5.696529 -7.835301 # HC ALK
88 1 2 0.060000 -8.865245 6.570528 -8.295301 # HC ALK
89 1 1 -0.060000 -9.209245 5.337528 -6.558300 # CT ALK
90 1 1 -0.180000 -10.716245 5.158529 -6.773301 # CT ALK
91 1 2 0.060000 -11.168244 6.111528 -7.051301 # HC ALK
92 1 2 0.060000 -11.199244 4.960529 -5.863301 # HC ALK
93 1 2 0.060000 -10.978246 4.267528 -7.409302 # HC ALK
94 1 2 0.060000 -8.825246 4.380529 -6.193301 # HC ALK
95 1 1 -0.180000 -8.897244 6.475528 -5.552302 # CT ALK
96 1 2 0.060000 -9.307244 6.177528 -4.546301 # HC ALK
97 1 2 0.060000 -9.297246 7.418529 -5.961300 # HC ALK
98 1 2 0.060000 -7.780246 6.477529 -5.373301 # HC ALK
99 1 1 -0.180000 -8.567245 5.571529 -1.211000 # CT ALK
100 1 2 0.060000 -8.716245 4.721529 -1.936001 # HC ALK
101 1 2 0.060000 -7.542245 5.696529 -1.122000 # HC ALK
102 1 2 0.060000 -8.865245 6.570528 -1.582001 # HC ALK
103 1 1 -0.060000 -9.209245 5.337528 0.155001 # CT ALK
104 1 1 -0.180000 -10.716245 5.158529 -0.059999 # CT ALK
105 1 2 0.060000 -11.168244 6.111528 -0.337999 # HC ALK
106 1 2 0.060000 -11.199244 4.960529 0.850000 # HC ALK
107 1 2 0.060000 -10.978246 4.267528 -0.696001 # HC ALK
108 1 2 0.060000 -8.825246 4.380529 0.520000 # HC ALK
109 1 1 -0.180000 -8.897244 6.475528 1.160999 # CT ALK
110 1 2 0.060000 -9.307244 6.177528 2.167000 # HC ALK
111 1 2 0.060000 -9.297246 7.418529 0.752001 # HC ALK
112 1 2 0.060000 -7.780246 6.477529 1.340000 # HC ALK
113 1 1 -0.180000 -8.567245 5.571529 5.502301 # CT ALK
114 1 2 0.060000 -8.716245 4.721529 4.777300 # HC ALK
115 1 2 0.060000 -7.542245 5.696529 5.591301 # HC ALK
116 1 2 0.060000 -8.865245 6.570528 5.131300 # HC ALK
117 1 1 -0.060000 -9.209245 5.337528 6.868302 # CT ALK
118 1 1 -0.180000 -10.716245 5.158529 6.653302 # CT ALK
119 1 2 0.060000 -11.168244 6.111528 6.375302 # HC ALK
120 1 2 0.060000 -11.199244 4.960529 7.563302 # HC ALK
121 1 2 0.060000 -10.978246 4.267528 6.017300 # HC ALK
122 1 2 0.060000 -8.825246 4.380529 7.233302 # HC ALK
123 1 1 -0.180000 -8.897244 6.475528 7.874300 # CT ALK
124 1 2 0.060000 -9.307244 6.177528 8.880301 # HC ALK
125 1 2 0.060000 -9.297246 7.418529 7.465302 # HC ALK
126 1 2 0.060000 -7.780246 6.477529 8.053301 # HC ALK
127 1 1 -0.180000 -2.325845 -5.760673 -7.924302 # CT ALK
128 1 2 0.060000 -2.474845 -6.610673 -8.649302 # HC ALK
129 1 2 0.060000 -1.300845 -5.635673 -7.835301 # HC ALK
130 1 2 0.060000 -2.623845 -4.761674 -8.295301 # HC ALK
131 1 1 -0.060000 -2.967845 -5.994674 -6.558300 # CT ALK
132 1 1 -0.180000 -4.474845 -6.173673 -6.773301 # CT ALK
133 1 2 0.060000 -4.926845 -5.220674 -7.051301 # HC ALK
134 1 2 0.060000 -4.957845 -6.371673 -5.863301 # HC ALK
135 1 2 0.060000 -4.736846 -7.064674 -7.409302 # HC ALK
136 1 2 0.060000 -2.583846 -6.951673 -6.193301 # HC ALK
137 1 1 -0.180000 -2.655845 -4.856674 -5.552302 # CT ALK
138 1 2 0.060000 -3.065845 -5.154674 -4.546301 # HC ALK
139 1 2 0.060000 -3.055846 -3.913673 -5.961300 # HC ALK
140 1 2 0.060000 -1.538846 -4.854673 -5.373301 # HC ALK
141 1 1 -0.180000 -2.325845 -5.760673 -1.211000 # CT ALK
142 1 2 0.060000 -2.474845 -6.610673 -1.936001 # HC ALK
143 1 2 0.060000 -1.300845 -5.635673 -1.122000 # HC ALK
144 1 2 0.060000 -2.623845 -4.761674 -1.582001 # HC ALK
145 1 1 -0.060000 -2.967845 -5.994674 0.155001 # CT ALK
146 1 1 -0.180000 -4.474845 -6.173673 -0.059999 # CT ALK
147 1 2 0.060000 -4.926845 -5.220674 -0.337999 # HC ALK
148 1 2 0.060000 -4.957845 -6.371673 0.850000 # HC ALK
149 1 2 0.060000 -4.736846 -7.064674 -0.696001 # HC ALK
150 1 2 0.060000 -2.583846 -6.951673 0.520000 # HC ALK
151 1 1 -0.180000 -2.655845 -4.856674 1.160999 # CT ALK
152 1 2 0.060000 -3.065845 -5.154674 2.167000 # HC ALK
153 1 2 0.060000 -3.055846 -3.913673 0.752001 # HC ALK
154 1 2 0.060000 -1.538846 -4.854673 1.340000 # HC ALK
155 1 1 -0.180000 -2.325845 -5.760673 5.502301 # CT ALK
156 1 2 0.060000 -2.474845 -6.610673 4.777300 # HC ALK
157 1 2 0.060000 -1.300845 -5.635673 5.591301 # HC ALK
158 1 2 0.060000 -2.623845 -4.761674 5.131300 # HC ALK
159 1 1 -0.060000 -2.967845 -5.994674 6.868302 # CT ALK
160 1 1 -0.180000 -4.474845 -6.173673 6.653302 # CT ALK
161 1 2 0.060000 -4.926845 -5.220674 6.375302 # HC ALK
162 1 2 0.060000 -4.957845 -6.371673 7.563302 # HC ALK
163 1 2 0.060000 -4.736846 -7.064674 6.017300 # HC ALK
164 1 2 0.060000 -2.583846 -6.951673 7.233302 # HC ALK
165 1 1 -0.180000 -2.655845 -4.856674 7.874300 # CT ALK
166 1 2 0.060000 -3.065845 -5.154674 8.880301 # HC ALK
167 1 2 0.060000 -3.055846 -3.913673 7.465302 # HC ALK
168 1 2 0.060000 -1.538846 -4.854673 8.053301 # HC ALK
169 1 1 -0.180000 -2.325845 -0.094572 -7.924302 # CT ALK
170 1 2 0.060000 -2.474845 -0.944572 -8.649302 # HC ALK
171 1 2 0.060000 -1.300845 0.030428 -7.835301 # HC ALK
172 1 2 0.060000 -2.623845 0.904427 -8.295301 # HC ALK
173 1 1 -0.060000 -2.967845 -0.328573 -6.558300 # CT ALK
174 1 1 -0.180000 -4.474845 -0.507572 -6.773301 # CT ALK
175 1 2 0.060000 -4.926845 0.445427 -7.051301 # HC ALK
176 1 2 0.060000 -4.957845 -0.705572 -5.863301 # HC ALK
177 1 2 0.060000 -4.736846 -1.398573 -7.409302 # HC ALK
178 1 2 0.060000 -2.583846 -1.285572 -6.193301 # HC ALK
179 1 1 -0.180000 -2.655845 0.809427 -5.552302 # CT ALK
180 1 2 0.060000 -3.065845 0.511427 -4.546301 # HC ALK
181 1 2 0.060000 -3.055846 1.752428 -5.961300 # HC ALK
182 1 2 0.060000 -1.538846 0.811428 -5.373301 # HC ALK
183 1 1 -0.180000 -2.325845 -0.094572 -1.211000 # CT ALK
184 1 2 0.060000 -2.474845 -0.944572 -1.936001 # HC ALK
185 1 2 0.060000 -1.300845 0.030428 -1.122000 # HC ALK
186 1 2 0.060000 -2.623845 0.904427 -1.582001 # HC ALK
187 1 1 -0.060000 -2.967845 -0.328573 0.155001 # CT ALK
188 1 1 -0.180000 -4.474845 -0.507572 -0.059999 # CT ALK
189 1 2 0.060000 -4.926845 0.445427 -0.337999 # HC ALK
190 1 2 0.060000 -4.957845 -0.705572 0.850000 # HC ALK
191 1 2 0.060000 -4.736846 -1.398573 -0.696001 # HC ALK
192 1 2 0.060000 -2.583846 -1.285572 0.520000 # HC ALK
193 1 1 -0.180000 -2.655845 0.809427 1.160999 # CT ALK
194 1 2 0.060000 -3.065845 0.511427 2.167000 # HC ALK
195 1 2 0.060000 -3.055846 1.752428 0.752001 # HC ALK
196 1 2 0.060000 -1.538846 0.811428 1.340000 # HC ALK
197 1 1 -0.180000 -2.325845 -0.094572 5.502301 # CT ALK
198 1 2 0.060000 -2.474845 -0.944572 4.777300 # HC ALK
199 1 2 0.060000 -1.300845 0.030428 5.591301 # HC ALK
200 1 2 0.060000 -2.623845 0.904427 5.131300 # HC ALK
201 1 1 -0.060000 -2.967845 -0.328573 6.868302 # CT ALK
202 1 1 -0.180000 -4.474845 -0.507572 6.653302 # CT ALK
203 1 2 0.060000 -4.926845 0.445427 6.375302 # HC ALK
204 1 2 0.060000 -4.957845 -0.705572 7.563302 # HC ALK
205 1 2 0.060000 -4.736846 -1.398573 6.017300 # HC ALK
206 1 2 0.060000 -2.583846 -1.285572 7.233302 # HC ALK
207 1 1 -0.180000 -2.655845 0.809427 7.874300 # CT ALK
208 1 2 0.060000 -3.065845 0.511427 8.880301 # HC ALK
209 1 2 0.060000 -3.055846 1.752428 7.465302 # HC ALK
210 1 2 0.060000 -1.538846 0.811428 8.053301 # HC ALK
211 1 1 -0.180000 -2.325845 5.571529 -7.924302 # CT ALK
212 1 2 0.060000 -2.474845 4.721529 -8.649302 # HC ALK
213 1 2 0.060000 -1.300845 5.696529 -7.835301 # HC ALK
214 1 2 0.060000 -2.623845 6.570528 -8.295301 # HC ALK
215 1 1 -0.060000 -2.967845 5.337528 -6.558300 # CT ALK
216 1 1 -0.180000 -4.474845 5.158529 -6.773301 # CT ALK
217 1 2 0.060000 -4.926845 6.111528 -7.051301 # HC ALK
218 1 2 0.060000 -4.957845 4.960529 -5.863301 # HC ALK
219 1 2 0.060000 -4.736846 4.267528 -7.409302 # HC ALK
220 1 2 0.060000 -2.583846 4.380529 -6.193301 # HC ALK
221 1 1 -0.180000 -2.655845 6.475528 -5.552302 # CT ALK
222 1 2 0.060000 -3.065845 6.177528 -4.546301 # HC ALK
223 1 2 0.060000 -3.055846 7.418529 -5.961300 # HC ALK
224 1 2 0.060000 -1.538846 6.477529 -5.373301 # HC ALK
225 1 1 -0.180000 -2.325845 5.571529 -1.211000 # CT ALK
226 1 2 0.060000 -2.474845 4.721529 -1.936001 # HC ALK
227 1 2 0.060000 -1.300845 5.696529 -1.122000 # HC ALK
228 1 2 0.060000 -2.623845 6.570528 -1.582001 # HC ALK
229 1 1 -0.060000 -2.967845 5.337528 0.155001 # CT ALK
230 1 1 -0.180000 -4.474845 5.158529 -0.059999 # CT ALK
231 1 2 0.060000 -4.926845 6.111528 -0.337999 # HC ALK
232 1 2 0.060000 -4.957845 4.960529 0.850000 # HC ALK
233 1 2 0.060000 -4.736846 4.267528 -0.696001 # HC ALK
234 1 2 0.060000 -2.583846 4.380529 0.520000 # HC ALK
235 1 1 -0.180000 -2.655845 6.475528 1.160999 # CT ALK
236 1 2 0.060000 -3.065845 6.177528 2.167000 # HC ALK
237 1 2 0.060000 -3.055846 7.418529 0.752001 # HC ALK
238 1 2 0.060000 -1.538846 6.477529 1.340000 # HC ALK
239 1 1 -0.180000 -2.325845 5.571529 5.502301 # CT ALK
240 1 2 0.060000 -2.474845 4.721529 4.777300 # HC ALK
241 1 2 0.060000 -1.300845 5.696529 5.591301 # HC ALK
242 1 2 0.060000 -2.623845 6.570528 5.131300 # HC ALK
243 1 1 -0.060000 -2.967845 5.337528 6.868302 # CT ALK
244 1 1 -0.180000 -4.474845 5.158529 6.653302 # CT ALK
245 1 2 0.060000 -4.926845 6.111528 6.375302 # HC ALK
246 1 2 0.060000 -4.957845 4.960529 7.563302 # HC ALK
247 1 2 0.060000 -4.736846 4.267528 6.017300 # HC ALK
248 1 2 0.060000 -2.583846 4.380529 7.233302 # HC ALK
249 1 1 -0.180000 -2.655845 6.475528 7.874300 # CT ALK
250 1 2 0.060000 -3.065845 6.177528 8.880301 # HC ALK
251 1 2 0.060000 -3.055846 7.418529 7.465302 # HC ALK
252 1 2 0.060000 -1.538846 6.477529 8.053301 # HC ALK
253 1 1 -0.180000 3.915555 -5.760673 -7.924302 # CT ALK
254 1 2 0.060000 3.766555 -6.610673 -8.649302 # HC ALK
255 1 2 0.060000 4.940555 -5.635673 -7.835301 # HC ALK
256 1 2 0.060000 3.617555 -4.761674 -8.295301 # HC ALK
257 1 1 -0.060000 3.273555 -5.994674 -6.558300 # CT ALK
258 1 1 -0.180000 1.766555 -6.173673 -6.773301 # CT ALK
259 1 2 0.060000 1.314555 -5.220674 -7.051301 # HC ALK
260 1 2 0.060000 1.283555 -6.371673 -5.863301 # HC ALK
261 1 2 0.060000 1.504554 -7.064674 -7.409302 # HC ALK
262 1 2 0.060000 3.657554 -6.951673 -6.193301 # HC ALK
263 1 1 -0.180000 3.585555 -4.856674 -5.552302 # CT ALK
264 1 2 0.060000 3.175555 -5.154674 -4.546301 # HC ALK
265 1 2 0.060000 3.185554 -3.913673 -5.961300 # HC ALK
266 1 2 0.060000 4.702554 -4.854673 -5.373301 # HC ALK
267 1 1 -0.180000 3.915555 -5.760673 -1.211000 # CT ALK
268 1 2 0.060000 3.766555 -6.610673 -1.936001 # HC ALK
269 1 2 0.060000 4.940555 -5.635673 -1.122000 # HC ALK
270 1 2 0.060000 3.617555 -4.761674 -1.582001 # HC ALK
271 1 1 -0.060000 3.273555 -5.994674 0.155001 # CT ALK
272 1 1 -0.180000 1.766555 -6.173673 -0.059999 # CT ALK
273 1 2 0.060000 1.314555 -5.220674 -0.337999 # HC ALK
274 1 2 0.060000 1.283555 -6.371673 0.850000 # HC ALK
275 1 2 0.060000 1.504554 -7.064674 -0.696001 # HC ALK
276 1 2 0.060000 3.657554 -6.951673 0.520000 # HC ALK
277 1 1 -0.180000 3.585555 -4.856674 1.160999 # CT ALK
278 1 2 0.060000 3.175555 -5.154674 2.167000 # HC ALK
279 1 2 0.060000 3.185554 -3.913673 0.752001 # HC ALK
280 1 2 0.060000 4.702554 -4.854673 1.340000 # HC ALK
281 1 1 -0.180000 3.915555 -5.760673 5.502301 # CT ALK
282 1 2 0.060000 3.766555 -6.610673 4.777300 # HC ALK
283 1 2 0.060000 4.940555 -5.635673 5.591301 # HC ALK
284 1 2 0.060000 3.617555 -4.761674 5.131300 # HC ALK
285 1 1 -0.060000 3.273555 -5.994674 6.868302 # CT ALK
286 1 1 -0.180000 1.766555 -6.173673 6.653302 # CT ALK
287 1 2 0.060000 1.314555 -5.220674 6.375302 # HC ALK
288 1 2 0.060000 1.283555 -6.371673 7.563302 # HC ALK
289 1 2 0.060000 1.504554 -7.064674 6.017300 # HC ALK
290 1 2 0.060000 3.657554 -6.951673 7.233302 # HC ALK
291 1 1 -0.180000 3.585555 -4.856674 7.874300 # CT ALK
292 1 2 0.060000 3.175555 -5.154674 8.880301 # HC ALK
293 1 2 0.060000 3.185554 -3.913673 7.465302 # HC ALK
294 1 2 0.060000 4.702554 -4.854673 8.053301 # HC ALK
295 1 1 -0.180000 3.915555 -0.094572 -7.924302 # CT ALK
296 1 2 0.060000 3.766555 -0.944572 -8.649302 # HC ALK
297 1 2 0.060000 4.940555 0.030428 -7.835301 # HC ALK
298 1 2 0.060000 3.617555 0.904427 -8.295301 # HC ALK
299 1 1 -0.060000 3.273555 -0.328573 -6.558300 # CT ALK
300 1 1 -0.180000 1.766555 -0.507572 -6.773301 # CT ALK
301 1 2 0.060000 1.314555 0.445427 -7.051301 # HC ALK
302 1 2 0.060000 1.283555 -0.705572 -5.863301 # HC ALK
303 1 2 0.060000 1.504554 -1.398573 -7.409302 # HC ALK
304 1 2 0.060000 3.657554 -1.285572 -6.193301 # HC ALK
305 1 1 -0.180000 3.585555 0.809427 -5.552302 # CT ALK
306 1 2 0.060000 3.175555 0.511427 -4.546301 # HC ALK
307 1 2 0.060000 3.185554 1.752428 -5.961300 # HC ALK
308 1 2 0.060000 4.702554 0.811428 -5.373301 # HC ALK
309 1 1 -0.180000 3.915555 -0.094572 -1.211000 # CT ALK
310 1 2 0.060000 3.766555 -0.944572 -1.936001 # HC ALK
311 1 2 0.060000 4.940555 0.030428 -1.122000 # HC ALK
312 1 2 0.060000 3.617555 0.904427 -1.582001 # HC ALK
313 1 1 -0.060000 3.273555 -0.328573 0.155001 # CT ALK
314 1 1 -0.180000 1.766555 -0.507572 -0.059999 # CT ALK
315 1 2 0.060000 1.314555 0.445427 -0.337999 # HC ALK
316 1 2 0.060000 1.283555 -0.705572 0.850000 # HC ALK
317 1 2 0.060000 1.504554 -1.398573 -0.696001 # HC ALK
318 1 2 0.060000 3.657554 -1.285572 0.520000 # HC ALK
319 1 1 -0.180000 3.585555 0.809427 1.160999 # CT ALK
320 1 2 0.060000 3.175555 0.511427 2.167000 # HC ALK
321 1 2 0.060000 3.185554 1.752428 0.752001 # HC ALK
322 1 2 0.060000 4.702554 0.811428 1.340000 # HC ALK
323 1 1 -0.180000 3.915555 -0.094572 5.502301 # CT ALK
324 1 2 0.060000 3.766555 -0.944572 4.777300 # HC ALK
325 1 2 0.060000 4.940555 0.030428 5.591301 # HC ALK
326 1 2 0.060000 3.617555 0.904427 5.131300 # HC ALK
327 1 1 -0.060000 3.273555 -0.328573 6.868302 # CT ALK
328 1 1 -0.180000 1.766555 -0.507572 6.653302 # CT ALK
329 1 2 0.060000 1.314555 0.445427 6.375302 # HC ALK
330 1 2 0.060000 1.283555 -0.705572 7.563302 # HC ALK
331 1 2 0.060000 1.504554 -1.398573 6.017300 # HC ALK
332 1 2 0.060000 3.657554 -1.285572 7.233302 # HC ALK
333 1 1 -0.180000 3.585555 0.809427 7.874300 # CT ALK
334 1 2 0.060000 3.175555 0.511427 8.880301 # HC ALK
335 1 2 0.060000 3.185554 1.752428 7.465302 # HC ALK
336 1 2 0.060000 4.702554 0.811428 8.053301 # HC ALK
337 1 1 -0.180000 3.915555 5.571529 -7.924302 # CT ALK
338 1 2 0.060000 3.766555 4.721529 -8.649302 # HC ALK
339 1 2 0.060000 4.940555 5.696529 -7.835301 # HC ALK
340 1 2 0.060000 3.617555 6.570528 -8.295301 # HC ALK
341 1 1 -0.060000 3.273555 5.337528 -6.558300 # CT ALK
342 1 1 -0.180000 1.766555 5.158529 -6.773301 # CT ALK
343 1 2 0.060000 1.314555 6.111528 -7.051301 # HC ALK
344 1 2 0.060000 1.283555 4.960529 -5.863301 # HC ALK
345 1 2 0.060000 1.504554 4.267528 -7.409302 # HC ALK
346 1 2 0.060000 3.657554 4.380529 -6.193301 # HC ALK
347 1 1 -0.180000 3.585555 6.475528 -5.552302 # CT ALK
348 1 2 0.060000 3.175555 6.177528 -4.546301 # HC ALK
349 1 2 0.060000 3.185554 7.418529 -5.961300 # HC ALK
350 1 2 0.060000 4.702554 6.477529 -5.373301 # HC ALK
351 1 1 -0.180000 3.915555 5.571529 -1.211000 # CT ALK
352 1 2 0.060000 3.766555 4.721529 -1.936001 # HC ALK
353 1 2 0.060000 4.940555 5.696529 -1.122000 # HC ALK
354 1 2 0.060000 3.617555 6.570528 -1.582001 # HC ALK
355 1 1 -0.060000 3.273555 5.337528 0.155001 # CT ALK
356 1 1 -0.180000 1.766555 5.158529 -0.059999 # CT ALK
357 1 2 0.060000 1.314555 6.111528 -0.337999 # HC ALK
358 1 2 0.060000 1.283555 4.960529 0.850000 # HC ALK
359 1 2 0.060000 1.504554 4.267528 -0.696001 # HC ALK
360 1 2 0.060000 3.657554 4.380529 0.520000 # HC ALK
361 1 1 -0.180000 3.585555 6.475528 1.160999 # CT ALK
362 1 2 0.060000 3.175555 6.177528 2.167000 # HC ALK
363 1 2 0.060000 3.185554 7.418529 0.752001 # HC ALK
364 1 2 0.060000 4.702554 6.477529 1.340000 # HC ALK
365 1 1 -0.180000 3.915555 5.571529 5.502301 # CT ALK
366 1 2 0.060000 3.766555 4.721529 4.777300 # HC ALK
367 1 2 0.060000 4.940555 5.696529 5.591301 # HC ALK
368 1 2 0.060000 3.617555 6.570528 5.131300 # HC ALK
369 1 1 -0.060000 3.273555 5.337528 6.868302 # CT ALK
370 1 1 -0.180000 1.766555 5.158529 6.653302 # CT ALK
371 1 2 0.060000 1.314555 6.111528 6.375302 # HC ALK
372 1 2 0.060000 1.283555 4.960529 7.563302 # HC ALK
373 1 2 0.060000 1.504554 4.267528 6.017300 # HC ALK
374 1 2 0.060000 3.657554 4.380529 7.233302 # HC ALK
375 1 1 -0.180000 3.585555 6.475528 7.874300 # CT ALK
376 1 2 0.060000 3.175555 6.177528 8.880301 # HC ALK
377 1 2 0.060000 3.185554 7.418529 7.465302 # HC ALK
378 1 2 0.060000 4.702554 6.477529 8.053301 # HC ALK
379 1 1 -0.180000 10.156955 -5.760673 -7.924302 # CT ALK
380 1 2 0.060000 10.007955 -6.610673 -8.649302 # HC ALK
381 1 2 0.060000 11.181954 -5.635673 -7.835301 # HC ALK
382 1 2 0.060000 9.858954 -4.761674 -8.295301 # HC ALK
383 1 1 -0.060000 9.514955 -5.994674 -6.558300 # CT ALK
384 1 1 -0.180000 8.007955 -6.173673 -6.773301 # CT ALK
385 1 2 0.060000 7.555955 -5.220674 -7.051301 # HC ALK
386 1 2 0.060000 7.524955 -6.371673 -5.863301 # HC ALK
387 1 2 0.060000 7.745954 -7.064674 -7.409302 # HC ALK
388 1 2 0.060000 9.898953 -6.951673 -6.193301 # HC ALK
389 1 1 -0.180000 9.826955 -4.856674 -5.552302 # CT ALK
390 1 2 0.060000 9.416955 -5.154674 -4.546301 # HC ALK
391 1 2 0.060000 9.426953 -3.913673 -5.961300 # HC ALK
392 1 2 0.060000 10.943954 -4.854673 -5.373301 # HC ALK
393 1 1 -0.180000 10.156955 -5.760673 -1.211000 # CT ALK
394 1 2 0.060000 10.007955 -6.610673 -1.936001 # HC ALK
395 1 2 0.060000 11.181954 -5.635673 -1.122000 # HC ALK
396 1 2 0.060000 9.858954 -4.761674 -1.582001 # HC ALK
397 1 1 -0.060000 9.514955 -5.994674 0.155001 # CT ALK
398 1 1 -0.180000 8.007955 -6.173673 -0.059999 # CT ALK
399 1 2 0.060000 7.555955 -5.220674 -0.337999 # HC ALK
400 1 2 0.060000 7.524955 -6.371673 0.850000 # HC ALK
401 1 2 0.060000 7.745954 -7.064674 -0.696001 # HC ALK
402 1 2 0.060000 9.898953 -6.951673 0.520000 # HC ALK
403 1 1 -0.180000 9.826955 -4.856674 1.160999 # CT ALK
404 1 2 0.060000 9.416955 -5.154674 2.167000 # HC ALK
405 1 2 0.060000 9.426953 -3.913673 0.752001 # HC ALK
406 1 2 0.060000 10.943954 -4.854673 1.340000 # HC ALK
407 1 1 -0.180000 10.156955 -5.760673 5.502301 # CT ALK
408 1 2 0.060000 10.007955 -6.610673 4.777300 # HC ALK
409 1 2 0.060000 11.181954 -5.635673 5.591301 # HC ALK
410 1 2 0.060000 9.858954 -4.761674 5.131300 # HC ALK
411 1 1 -0.060000 9.514955 -5.994674 6.868302 # CT ALK
412 1 1 -0.180000 8.007955 -6.173673 6.653302 # CT ALK
413 1 2 0.060000 7.555955 -5.220674 6.375302 # HC ALK
414 1 2 0.060000 7.524955 -6.371673 7.563302 # HC ALK
415 1 2 0.060000 7.745954 -7.064674 6.017300 # HC ALK
416 1 2 0.060000 9.898953 -6.951673 7.233302 # HC ALK
417 1 1 -0.180000 9.826955 -4.856674 7.874300 # CT ALK
418 1 2 0.060000 9.416955 -5.154674 8.880301 # HC ALK
419 1 2 0.060000 9.426953 -3.913673 7.465302 # HC ALK
420 1 2 0.060000 10.943954 -4.854673 8.053301 # HC ALK
421 1 1 -0.180000 10.156955 -0.094572 -7.924302 # CT ALK
422 1 2 0.060000 10.007955 -0.944572 -8.649302 # HC ALK
423 1 2 0.060000 11.181954 0.030428 -7.835301 # HC ALK
424 1 2 0.060000 9.858954 0.904427 -8.295301 # HC ALK
425 1 1 -0.060000 9.514955 -0.328573 -6.558300 # CT ALK
426 1 1 -0.180000 8.007955 -0.507572 -6.773301 # CT ALK
427 1 2 0.060000 7.555955 0.445427 -7.051301 # HC ALK
428 1 2 0.060000 7.524955 -0.705572 -5.863301 # HC ALK
429 1 2 0.060000 7.745954 -1.398573 -7.409302 # HC ALK
430 1 2 0.060000 9.898953 -1.285572 -6.193301 # HC ALK
431 1 1 -0.180000 9.826955 0.809427 -5.552302 # CT ALK
432 1 2 0.060000 9.416955 0.511427 -4.546301 # HC ALK
433 1 2 0.060000 9.426953 1.752428 -5.961300 # HC ALK
434 1 2 0.060000 10.943954 0.811428 -5.373301 # HC ALK
435 1 1 -0.180000 10.156955 -0.094572 -1.211000 # CT ALK
436 1 2 0.060000 10.007955 -0.944572 -1.936001 # HC ALK
437 1 2 0.060000 11.181954 0.030428 -1.122000 # HC ALK
438 1 2 0.060000 9.858954 0.904427 -1.582001 # HC ALK
439 1 1 -0.060000 9.514955 -0.328573 0.155001 # CT ALK
440 1 1 -0.180000 8.007955 -0.507572 -0.059999 # CT ALK
441 1 2 0.060000 7.555955 0.445427 -0.337999 # HC ALK
442 1 2 0.060000 7.524955 -0.705572 0.850000 # HC ALK
443 1 2 0.060000 7.745954 -1.398573 -0.696001 # HC ALK
444 1 2 0.060000 9.898953 -1.285572 0.520000 # HC ALK
445 1 1 -0.180000 9.826955 0.809427 1.160999 # CT ALK
446 1 2 0.060000 9.416955 0.511427 2.167000 # HC ALK
447 1 2 0.060000 9.426953 1.752428 0.752001 # HC ALK
448 1 2 0.060000 10.943954 0.811428 1.340000 # HC ALK
449 1 1 -0.180000 10.156955 -0.094572 5.502301 # CT ALK
450 1 2 0.060000 10.007955 -0.944572 4.777300 # HC ALK
451 1 2 0.060000 11.181954 0.030428 5.591301 # HC ALK
452 1 2 0.060000 9.858954 0.904427 5.131300 # HC ALK
453 1 1 -0.060000 9.514955 -0.328573 6.868302 # CT ALK
454 1 1 -0.180000 8.007955 -0.507572 6.653302 # CT ALK
455 1 2 0.060000 7.555955 0.445427 6.375302 # HC ALK
456 1 2 0.060000 7.524955 -0.705572 7.563302 # HC ALK
457 1 2 0.060000 7.745954 -1.398573 6.017300 # HC ALK
458 1 2 0.060000 9.898953 -1.285572 7.233302 # HC ALK
459 1 1 -0.180000 9.826955 0.809427 7.874300 # CT ALK
460 1 2 0.060000 9.416955 0.511427 8.880301 # HC ALK
461 1 2 0.060000 9.426953 1.752428 7.465302 # HC ALK
462 1 2 0.060000 10.943954 0.811428 8.053301 # HC ALK
463 1 1 -0.180000 10.156955 5.571529 -7.924302 # CT ALK
464 1 2 0.060000 10.007955 4.721529 -8.649302 # HC ALK
465 1 2 0.060000 11.181954 5.696529 -7.835301 # HC ALK
466 1 2 0.060000 9.858954 6.570528 -8.295301 # HC ALK
467 1 1 -0.060000 9.514955 5.337528 -6.558300 # CT ALK
468 1 1 -0.180000 8.007955 5.158529 -6.773301 # CT ALK
469 1 2 0.060000 7.555955 6.111528 -7.051301 # HC ALK
470 1 2 0.060000 7.524955 4.960529 -5.863301 # HC ALK
471 1 2 0.060000 7.745954 4.267528 -7.409302 # HC ALK
472 1 2 0.060000 9.898953 4.380529 -6.193301 # HC ALK
473 1 1 -0.180000 9.826955 6.475528 -5.552302 # CT ALK
474 1 2 0.060000 9.416955 6.177528 -4.546301 # HC ALK
475 1 2 0.060000 9.426953 7.418529 -5.961300 # HC ALK
476 1 2 0.060000 10.943954 6.477529 -5.373301 # HC ALK
477 1 1 -0.180000 10.156955 5.571529 -1.211000 # CT ALK
478 1 2 0.060000 10.007955 4.721529 -1.936001 # HC ALK
479 1 2 0.060000 11.181954 5.696529 -1.122000 # HC ALK
480 1 2 0.060000 9.858954 6.570528 -1.582001 # HC ALK
481 1 1 -0.060000 9.514955 5.337528 0.155001 # CT ALK
482 1 1 -0.180000 8.007955 5.158529 -0.059999 # CT ALK
483 1 2 0.060000 7.555955 6.111528 -0.337999 # HC ALK
484 1 2 0.060000 7.524955 4.960529 0.850000 # HC ALK
485 1 2 0.060000 7.745954 4.267528 -0.696001 # HC ALK
486 1 2 0.060000 9.898953 4.380529 0.520000 # HC ALK
487 1 1 -0.180000 9.826955 6.475528 1.160999 # CT ALK
488 1 2 0.060000 9.416955 6.177528 2.167000 # HC ALK
489 1 2 0.060000 9.426953 7.418529 0.752001 # HC ALK
490 1 2 0.060000 10.943954 6.477529 1.340000 # HC ALK
491 1 1 -0.180000 10.156955 5.571529 5.502301 # CT ALK
492 1 2 0.060000 10.007955 4.721529 4.777300 # HC ALK
493 1 2 0.060000 11.181954 5.696529 5.591301 # HC ALK
494 1 2 0.060000 9.858954 6.570528 5.131300 # HC ALK
495 1 1 -0.060000 9.514955 5.337528 6.868302 # CT ALK
496 1 1 -0.180000 8.007955 5.158529 6.653302 # CT ALK
497 1 2 0.060000 7.555955 6.111528 6.375302 # HC ALK
498 1 2 0.060000 7.524955 4.960529 7.563302 # HC ALK
499 1 2 0.060000 7.745954 4.267528 6.017300 # HC ALK
500 1 2 0.060000 9.898953 4.380529 7.233302 # HC ALK
501 1 1 -0.180000 9.826955 6.475528 7.874300 # CT ALK
502 1 2 0.060000 9.416955 6.177528 8.880301 # HC ALK
503 1 2 0.060000 9.426953 7.418529 7.465302 # HC ALK
504 1 2 0.060000 10.943954 6.477529 8.053301 # HC ALK

 Bonds

1 2 1 2
2 2 1 3
3 2 1 4
4 1 1 5
5 2 5 10
6 1 5 11
7 1 5 6
8 2 6 8
9 2 6 7
10 2 6 9
11 2 11 13
12 2 11 14
13 2 11 12
14 2 15 16
15 2 15 17
16 2 15 18
17 1 15 19
18 2 19 24
19 1 19 25
20 1 19 20
21 2 20 22
22 2 20 21
23 2 20 23
24 2 25 27
25 2 25 28
26 2 25 26
27 2 29 30
28 2 29 31
29 2 29 32
30 1 29 33
31 2 33 38
32 1 33 39
33 1 33 34
34 2 34 36
35 2 34 35
36 2 34 37
37 2 39 41
38 2 39 42
39 2 39 40
40 2 43 44
41 2 43 45
42 2 43 46
43 1 43 47
44 2 47 52
45 1 47 53
46 1 47 48
47 2 48 50
48 2 48 49
49 2 48 51
50 2 53 55
51 2 53 56
52 2 53 54
53 2 57 58
54 2 57 59
55 2 57 60
56 1 57 61
57 2 61 66
58 1 61 67
59 1 61 62
60 2 62 64
61 2 62 63
62 2 62 65
63 2 67 69
64 2 67 70
65 2 67 68
66 2 71 72
67 2 71 73
68 2 71 74
69 1 71 75
70 2 75 80
71 1 75 81
72 1 75 76
73 2 76 78
74 2 76 77
75 2 76 79
76 2 81 83
77 2 81 84
78 2 81 82
79 2 85 86
80 2 85 87
81 2 85 88
82 1 85 89
83 2 89 94
84 1 89 95
85 1 89 90
86 2 90 92
87 2 90 91
88 2 90 93
89 2 95 97
90 2 95 98
91 2 95 96
92 2 99 100
93 2 99 101
94 2 99 102
95 1 99 103
96 2 103 108
97 1 103 109
98 1 103 104
99 2 104 106
100 2 104 105
101 2 104 107
102 2 109 111
103 2 109 112
104 2 109 110
105 2 113 114
106 2 113 115
107 2 113 116
108 1 113 117
109 2 117 122
110 1 117 123
111 1 117 118
112 2 118 120
113 2 118 119
114 2 118 121
115 2 123 125
116 2 123 126
117 2 123 124
118 2 127 128
119 2 127 129
120 2 127 130
121 1 127 131
122 2 131 136
123 1 131 137
124 1 131 132
125 2 132 134
126 2 132 133
127 2 132 135
128 2 137 139
129 2 137 140
130 2 137 138
131 2 141 142
132 2 141 143
133 2 141 144
134 1 141 145
135 2 145 150
136 1 145 151
137 1 145 146
138 2 146 148
139 2 146 147
140 2 146 149
141 2 151 153
142 2 151 154
143 2 151 152
144 2 155 156
145 2 155 157
146 2 155 158
147 1 155 159
148 2 159 164
149 1 159 165
150 1 159 160
151 2 160 162
152 2 160 161
153 2 160 163