LAMMPS data file. CGCMM style. atom_style full generated by VMD/TopoTools v1.5 on Sat May 09 14:23:06 AEST 2015
 320 atoms
 256 bonds
 384 angles
 0 dihedrals
 0 impropers
 2 atom types
 1 bond types
 1 angle types
 0 dihedral types
 0 improper types
 -8.297002 8.317403  xlo xhi
 -8.145501 8.182899  ylo yhi
 -7.201300 7.173500  zlo zhi

# Pair Coeffs
#
# 1  CT
# 2  HC

# Bond Coeffs
#
# 1  CT-HC

# Angle Coeffs
#
# 1  HC-CT-HC

 Masses

 1 12.011000 # CT
 2 1.008000 # HC

 Atoms

1 1 1 -0.240000 -6.197200 -6.116951 -5.374950 # CT ALK
2 1 2 0.060000 -5.332201 -6.138950 -4.770950 # HC ALK
3 1 2 0.060000 -7.108202 -6.150951 -4.786949 # HC ALK
4 1 2 0.060000 -6.256200 -5.248951 -6.037950 # HC ALK
5 1 2 0.060000 -6.258201 -6.959951 -5.981948 # HC ALK
6 1 1 -0.240000 -6.197200 -6.116951 -1.781250 # CT ALK
7 1 2 0.060000 -5.332201 -6.138950 -1.177250 # HC ALK
8 1 2 0.060000 -7.108202 -6.150951 -1.193249 # HC ALK
9 1 2 0.060000 -6.256200 -5.248951 -2.444250 # HC ALK
10 1 2 0.060000 -6.258201 -6.959951 -2.388248 # HC ALK
11 1 1 -0.240000 -6.197200 -6.116951 1.812450 # CT ALK
12 1 2 0.060000 -5.332201 -6.138950 2.416450 # HC ALK
13 1 2 0.060000 -7.108202 -6.150951 2.400451 # HC ALK
14 1 2 0.060000 -6.256200 -5.248951 1.149450 # HC ALK
15 1 2 0.060000 -6.258201 -6.959951 1.205452 # HC ALK
16 1 1 -0.240000 -6.197200 -6.116951 5.406150 # CT ALK
17 1 2 0.060000 -5.332201 -6.138950 6.010150 # HC ALK
18 1 2 0.060000 -7.108202 -6.150951 5.994152 # HC ALK
19 1 2 0.060000 -6.256200 -5.248951 4.743150 # HC ALK
20 1 2 0.060000 -6.258201 -6.959951 4.799152 # HC ALK
21 1 1 -0.240000 -6.197200 -2.034851 -5.374950 # CT ALK
22 1 2 0.060000 -5.332201 -2.056850 -4.770950 # HC ALK
23 1 2 0.060000 -7.108202 -2.068851 -4.786949 # HC ALK
24 1 2 0.060000 -6.256200 -1.166851 -6.037950 # HC ALK
25 1 2 0.060000 -6.258201 -2.877851 -5.981948 # HC ALK
26 1 1 -0.240000 -6.197200 -2.034851 -1.781250 # CT ALK
27 1 2 0.060000 -5.332201 -2.056850 -1.177250 # HC ALK
28 1 2 0.060000 -7.108202 -2.068851 -1.193249 # HC ALK
29 1 2 0.060000 -6.256200 -1.166851 -2.444250 # HC ALK
30 1 2 0.060000 -6.258201 -2.877851 -2.388248 # HC ALK
31 1 1 -0.240000 -6.197200 -2.034851 1.812450 # CT ALK
32 1 2 0.060000 -5.332201 -2.056850 2.416450 # HC ALK
33 1 2 0.060000 -7.108202 -2.068851 2.400451 # HC ALK
34 1 2 0.060000 -6.256200 -1.166851 1.149450 # HC ALK
35 1 2 0.060000 -6.258201 -2.877851 1.205452 # HC ALK
36 1 1 -0.240000 -6.197200 -2.034851 5.406150 # CT ALK
37 1 2 0.060000 -5.332201 -2.056850 6.010150 # HC ALK
38 1 2 0.060000 -7.108202 -2.068851 5.994152 # HC ALK
39 1 2 0.060000 -6.256200 -1.166851 4.743150 # HC ALK
40 1 2 0.060000 -6.258201 -2.877851 4.799152 # HC ALK
41 1 1 -0.240000 -6.197200 2.047249 -5.374950 # CT ALK
42 1 2 0.060000 -5.332201 2.025249 -4.770950 # HC ALK
43 1 2 0.060000 -7.108202 2.013248 -4.786949 # HC ALK
44 1 2 0.060000 -6.256200 2.915249 -6.037950 # HC ALK
45 1 2 0.060000 -6.258201 1.204248 -5.981948 # HC ALK
46 1 1 -0.240000 -6.197200 2.047249 -1.781250 # CT ALK
47 1 2 0.060000 -5.332201 2.025249 -1.177250 # HC ALK
48 1 2 0.060000 -7.108202 2.013248 -1.193249 # HC ALK
49 1 2 0.060000 -6.256200 2.915249 -2.444250 # HC ALK
50 1 2 0.060000 -6.258201 1.204248 -2.388248 # HC ALK
51 1 1 -0.240000 -6.197200 2.047249 1.812450 # CT ALK
52 1 2 0.060000 -5.332201 2.025249 2.416450 # HC ALK
53 1 2 0.060000 -7.108202 2.013248 2.400451 # HC ALK
54 1 2 0.060000 -6.256200 2.915249 1.149450 # HC ALK
55 1 2 0.060000 -6.258201 1.204248 1.205452 # HC ALK
56 1 1 -0.240000 -6.197200 2.047249 5.406150 # CT ALK
57 1 2 0.060000 -5.332201 2.025249 6.010150 # HC ALK
58 1 2 0.060000 -7.108202 2.013248 5.994152 # HC ALK
59 1 2 0.060000 -6.256200 2.915249 4.743150 # HC ALK
60 1 2 0.060000 -6.258201 1.204248 4.799152 # HC ALK
61 1 1 -0.240000 -6.197200 6.129349 -5.374950 # CT ALK
62 1 2 0.060000 -5.332201 6.107349 -4.770950 # HC ALK
63 1 2 0.060000 -7.108202 6.095348 -4.786949 # HC ALK
64 1 2 0.060000 -6.256200 6.997349 -6.037950 # HC ALK
65 1 2 0.060000 -6.258201 5.286348 -5.981948 # HC ALK
66 1 1 -0.240000 -6.197200 6.129349 -1.781250 # CT ALK
67 1 2 0.060000 -5.332201 6.107349 -1.177250 # HC ALK
68 1 2 0.060000 -7.108202 6.095348 -1.193249 # HC ALK
69 1 2 0.060000 -6.256200 6.997349 -2.444250 # HC ALK
70 1 2 0.060000 -6.258201 5.286348 -2.388248 # HC ALK
71 1 1 -0.240000 -6.197200 6.129349 1.812450 # CT ALK
72 1 2 0.060000 -5.332201 6.107349 2.416450 # HC ALK
73 1 2 0.060000 -7.108202 6.095348 2.400451 # HC ALK
74 1 2 0.060000 -6.256200 6.997349 1.149450 # HC ALK
75 1 2 0.060000 -6.258201 5.286348 1.205452 # HC ALK
76 1 1 -0.240000 -6.197200 6.129349 5.406150 # CT ALK
77 1 2 0.060000 -5.332201 6.107349 6.010150 # HC ALK
78 1 2 0.060000 -7.108202 6.095348 5.994152 # HC ALK
79 1 2 0.060000 -6.256200 6.997349 4.743150 # HC ALK
80 1 2 0.060000 -6.258201 5.286348 4.799152 # HC ALK
81 1 1 -0.240000 -2.043599 -6.116951 -5.374950 # CT ALK
82 1 2 0.060000 -1.178600 -6.138950 -4.770950 # HC ALK
83 1 2 0.060000 -2.954601 -6.150951 -4.786949 # HC ALK
84 1 2 0.060000 -2.102599 -5.248951 -6.037950 # HC ALK
85 1 2 0.060000 -2.104600 -6.959951 -5.981948 # HC ALK
86 1 1 -0.240000 -2.043599 -6.116951 -1.781250 # CT ALK
87 1 2 0.060000 -1.178600 -6.138950 -1.177250 # HC ALK
88 1 2 0.060000 -2.954601 -6.150951 -1.193249 # HC ALK
89 1 2 0.060000 -2.102599 -5.248951 -2.444250 # HC ALK
90 1 2 0.060000 -2.104600 -6.959951 -2.388248 # HC ALK
91 1 1 -0.240000 -2.043599 -6.116951 1.812450 # CT ALK
92 1 2 0.060000 -1.178600 -6.138950 2.416450 # HC ALK
93 1 2 0.060000 -2.954601 -6.150951 2.400451 # HC ALK
94 1 2 0.060000 -2.102599 -5.248951 1.149450 # HC ALK
95 1 2 0.060000 -2.104600 -6.959951 1.205452 # HC ALK
96 1 1 -0.240000 -2.043599 -6.116951 5.406150 # CT ALK
97 1 2 0.060000 -1.178600 -6.138950 6.010150 # HC ALK
98 1 2 0.060000 -2.954601 -6.150951 5.994152 # HC ALK
99 1 2 0.060000 -2.102599 -5.248951 4.743150 # HC ALK
100 1 2 0.060000 -2.104600 -6.959951 4.799152 # HC ALK
101 1 1 -0.240000 -2.043599 -2.034851 -5.374950 # CT ALK
102 1 2 0.060000 -1.178600 -2.056850 -4.770950 # HC ALK
103 1 2 0.060000 -2.954601 -2.068851 -4.786949 # HC ALK
104 1 2 0.060000 -2.102599 -1.166851 -6.037950 # HC ALK
105 1 2 0.060000 -2.104600 -2.877851 -5.981948 # HC ALK
106 1 1 -0.240000 -2.043599 -2.034851 -1.781250 # CT ALK
107 1 2 0.060000 -1.178600 -2.056850 -1.177250 # HC ALK
108 1 2 0.060000 -2.954601 -2.068851 -1.193249 # HC ALK
109 1 2 0.060000 -2.102599 -1.166851 -2.444250 # HC ALK
110 1 2 0.060000 -2.104600 -2.877851 -2.388248 # HC ALK
111 1 1 -0.240000 -2.043599 -2.034851 1.812450 # CT ALK
112 1 2 0.060000 -1.178600 -2.056850 2.416450 # HC ALK
113 1 2 0.060000 -2.954601 -2.068851 2.400451 # HC ALK
114 1 2 0.060000 -2.102599 -1.166851 1.149450 # HC ALK
115 1 2 0.060000 -2.104600 -2.877851 1.205452 # HC ALK
116 1 1 -0.240000 -2.043599 -2.034851 5.406150 # CT ALK
117 1 2 0.060000 -1.178600 -2.056850 6.010150 # HC ALK
118 1 2 0.060000 -2.954601 -2.068851 5.994152 # HC ALK
119 1 2 0.060000 -2.102599 -1.166851 4.743150 # HC ALK
120 1 2 0.060000 -2.104600 -2.877851 4.799152 # HC ALK
121 1 1 -0.240000 -2.043599 2.047249 -5.374950 # CT ALK
122 1 2 0.060000 -1.178600 2.025249 -4.770950 # HC ALK
123 1 2 0.060000 -2.954601 2.013248 -4.786949 # HC ALK
124 1 2 0.060000 -2.102599 2.915249 -6.037950 # HC ALK
125 1 2 0.060000 -2.104600 1.204248 -5.981948 # HC ALK
126 1 1 -0.240000 -2.043599 2.047249 -1.781250 # CT ALK
127 1 2 0.060000 -1.178600 2.025249 -1.177250 # HC ALK
128 1 2 0.060000 -2.954601 2.013248 -1.193249 # HC ALK
129 1 2 0.060000 -2.102599 2.915249 -2.444250 # HC ALK
130 1 2 0.060000 -2.104600 1.204248 -2.388248 # HC ALK
131 1 1 -0.240000 -2.043599 2.047249 1.812450 # CT ALK
132 1 2 0.060000 -1.178600 2.025249 2.416450 # HC ALK
133 1 2 0.060000 -2.954601 2.013248 2.400451 # HC ALK
134 1 2 0.060000 -2.102599 2.915249 1.149450 # HC ALK
135 1 2 0.060000 -2.104600 1.204248 1.205452 # HC ALK
136 1 1 -0.240000 -2.043599 2.047249 5.406150 # CT ALK
137 1 2 0.060000 -1.178600 2.025249 6.010150 # HC ALK
138 1 2 0.060000 -2.954601 2.013248 5.994152 # HC ALK
139 1 2 0.060000 -2.102599 2.915249 4.743150 # HC ALK
140 1 2 0.060000 -2.104600 1.204248 4.799152 # HC ALK
141 1 1 -0.240000 -2.043599 6.129349 -5.374950 # CT ALK
142 1 2 0.060000 -1.178600 6.107349 -4.770950 # HC ALK
143 1 2 0.060000 -2.954601 6.095348 -4.786949 # HC ALK
144 1 2 0.060000 -2.102599 6.997349 -6.037950 # HC ALK
145 1 2 0.060000 -2.104600 5.286348 -5.981948 # HC ALK
146 1 1 -0.240000 -2.043599 6.129349 -1.781250 # CT ALK
147 1 2 0.060000 -1.178600 6.107349 -1.177250 # HC ALK
148 1 2 0.060000 -2.954601 6.095348 -1.193249 # HC ALK
149 1 2 0.060000 -2.102599 6.997349 -2.444250 # HC ALK
150 1 2 0.060000 -2.104600 5.286348 -2.388248 # HC ALK
151 1 1 -0.240000 -2.043599 6.129349 1.812450 # CT ALK
152 1 2 0.060000 -1.178600 6.107349 2.416450 # HC ALK
153 1 2 0.060000 -2.954601 6.095348 2.400451 # HC ALK
154 1 2 0.060000 -2.102599 6.997349 1.149450 # HC ALK
155 1 2 0.060000 -2.104600 5.286348 1.205452 # HC ALK
156 1 1 -0.240000 -2.043599 6.129349 5.406150 # CT ALK
157 1 2 0.060000 -1.178600 6.107349 6.010150 # HC ALK
158 1 2 0.060000 -2.954601 6.095348 5.994152 # HC ALK
159 1 2 0.060000 -2.102599 6.997349 4.743150 # HC ALK
160 1 2 0.060000 -2.104600 5.286348 4.799152 # HC ALK
161 1 1 -0.240000 2.110002 -6.116951 -5.374950 # CT ALK
162 1 2 0.060000 2.975002 -6.138950 -4.770950 # HC ALK
163 1 2 0.060000 1.199001 -6.150951 -4.786949 # HC ALK
164 1 2 0.060000 2.051002 -5.248951 -6.037950 # HC ALK
165 1 2 0.060000 2.049001 -6.959951 -5.981948 # HC ALK
166 1 1 -0.240000 2.110002 -6.116951 -1.781250 # CT ALK
167 1 2 0.060000 2.975002 -6.138950 -1.177250 # HC ALK
168 1 2 0.060000 1.199001 -6.150951 -1.193249 # HC ALK
169 1 2 0.060000 2.051002 -5.248951 -2.444250 # HC ALK
170 1 2 0.060000 2.049001 -6.959951 -2.388248 # HC ALK
171 1 1 -0.240000 2.110002 -6.116951 1.812450 # CT ALK
172 1 2 0.060000 2.975002 -6.138950 2.416450 # HC ALK
173 1 2 0.060000 1.199001 -6.150951 2.400451 # HC ALK
174 1 2 0.060000 2.051002 -5.248951 1.149450 # HC ALK
175 1 2 0.060000 2.049001 -6.959951 1.205452 # HC ALK
176 1 1 -0.240000 2.110002 -6.116951 5.406150 # CT ALK
177 1 2 0.060000 2.975002 -6.138950 6.010150 # HC ALK
178 1 2 0.060000 1.199001 -6.150951 5.994152 # HC ALK
179 1 2 0.060000 2.051002 -5.248951 4.743150 # HC ALK
180 1 2 0.060000 2.049001 -6.959951 4.799152 # HC ALK
181 1 1 -0.240000 2.110002 -2.034851 -5.374950 # CT ALK
182 1 2 0.060000 2.975002 -2.056850 -4.770950 # HC ALK
183 1 2 0.060000 1.199001 -2.068851 -4.786949 # HC ALK
184 1 2 0.060000 2.051002 -1.166851 -6.037950 # HC ALK
185 1 2 0.060000 2.049001 -2.877851 -5.981948 # HC ALK
186 1 1 -0.240000 2.110002 -2.034851 -1.781250 # CT ALK
187 1 2 0.060000 2.975002 -2.056850 -1.177250 # HC ALK
188 1 2 0.060000 1.199001 -2.068851 -1.193249 # HC ALK
189 1 2 0.060000 2.051002 -1.166851 -2.444250 # HC ALK
190 1 2 0.060000 2.049001 -2.877851 -2.388248 # HC ALK
191 1 1 -0.240000 2.110002 -2.034851 1.812450 # CT ALK
192 1 2 0.060000 2.975002 -2.056850 2.416450 # HC ALK
193 1 2 0.060000 1.199001 -2.068851 2.400451 # HC ALK
194 1 2 0.060000 2.051002 -1.166851 1.149450 # HC ALK
195 1 2 0.060000 2.049001 -2.877851 1.205452 # HC ALK
196 1 1 -0.240000 2.110002 -2.034851 5.406150 # CT ALK
197 1 2 0.060000 2.975002 -2.056850 6.010150 # HC ALK
198 1 2 0.060000 1.199001 -2.068851 5.994152 # HC ALK
199 1 2 0.060000 2.051002 -1.166851 4.743150 # HC ALK
200 1 2 0.060000 2.049001 -2.877851 4.799152 # HC ALK
201 1 1 -0.240000 2.110002 2.047249 -5.374950 # CT ALK
202 1 2 0.060000 2.975002 2.025249 -4.770950 # HC ALK
203 1 2 0.060000 1.199001 2.013248 -4.786949 # HC ALK
204 1 2 0.060000 2.051002 2.915249 -6.037950 # HC ALK
205 1 2 0.060000 2.049001 1.204248 -5.981948 # HC ALK
206 1 1 -0.240000 2.110002 2.047249 -1.781250 # CT ALK
207 1 2 0.060000 2.975002 2.025249 -1.177250 # HC ALK
208 1 2 0.060000 1.199001 2.013248 -1.193249 # HC ALK
209 1 2 0.060000 2.051002 2.915249 -2.444250 # HC ALK
210 1 2 0.060000 2.049001 1.204248 -2.388248 # HC ALK
211 1 1 -0.240000 2.110002 2.047249 1.812450 # CT ALK
212 1 2 0.060000 2.975002 2.025249 2.416450 # HC ALK
213 1 2 0.060000 1.199001 2.013248 2.400451 # HC ALK
214 1 2 0.060000 2.051002 2.915249 1.149450 # HC ALK
215 1 2 0.060000 2.049001 1.204248 1.205452 # HC ALK
216 1 1 -0.240000 2.110002 2.047249 5.406150 # CT ALK
217 1 2 0.060000 2.975002 2.025249 6.010150 # HC ALK
218 1 2 0.060000 1.199001 2.013248 5.994152 # HC ALK
219 1 2 0.060000 2.051002 2.915249 4.743150 # HC ALK
220 1 2 0.060000 2.049001 1.204248 4.799152 # HC ALK
221 1 1 -0.240000 2.110002 6.129349 -5.374950 # CT ALK
222 1 2 0.060000 2.975002 6.107349 -4.770950 # HC ALK
223 1 2 0.060000 1.199001 6.095348 -4.786949 # HC ALK
224 1 2 0.060000 2.051002 6.997349 -6.037950 # HC ALK
225 1 2 0.060000 2.049001 5.286348 -5.981948 # HC ALK
226 1 1 -0.240000 2.110002 6.129349 -1.781250 # CT ALK
227 1 2 0.060000 2.975002 6.107349 -1.177250 # HC ALK
228 1 2 0.060000 1.199001 6.095348 -1.193249 # HC ALK
229 1 2 0.060000 2.051002 6.997349 -2.444250 # HC ALK
230 1 2 0.060000 2.049001 5.286348 -2.388248 # HC ALK
231 1 1 -0.240000 2.110002 6.129349 1.812450 # CT ALK
232 1 2 0.060000 2.975002 6.107349 2.416450 # HC ALK
233 1 2 0.060000 1.199001 6.095348 2.400451 # HC ALK
234 1 2 0.060000 2.051002 6.997349 1.149450 # HC ALK
235 1 2 0.060000 2.049001 5.286348 1.205452 # HC ALK
236 1 1 -0.240000 2.110002 6.129349 5.406150 # CT ALK
237 1 2 0.060000 2.975002 6.107349 6.010150 # HC ALK
238 1 2 0.060000 1.199001 6.095348 5.994152 # HC ALK
239 1 2 0.060000 2.051002 6.997349 4.743150 # HC ALK
240 1 2 0.060000 2.049001 5.286348 4.799152 # HC ALK
241 1 1 -0.240000 6.263603 -6.116951 -5.374950 # CT ALK
242 1 2 0.060000 7.128603 -6.138950 -4.770950 # HC ALK
243 1 2 0.060000 5.352602 -6.150951 -4.786949 # HC ALK
244 1 2 0.060000 6.204603 -5.248951 -6.037950 # HC ALK
245 1 2 0.060000 6.202602 -6.959951 -5.981948 # HC ALK
246 1 1 -0.240000 6.263603 -6.116951 -1.781250 # CT ALK
247 1 2 0.060000 7.128603 -6.138950 -1.177250 # HC ALK
248 1 2 0.060000 5.352602 -6.150951 -1.193249 # HC ALK
249 1 2 0.060000 6.204603 -5.248951 -2.444250 # HC ALK
250 1 2 0.060000 6.202602 -6.959951 -2.388248 # HC ALK
251 1 1 -0.240000 6.263603 -6.116951 1.812450 # CT ALK
252 1 2 0.060000 7.128603 -6.138950 2.416450 # HC ALK
253 1 2 0.060000 5.352602 -6.150951 2.400451 # HC ALK
254 1 2 0.060000 6.204603 -5.248951 1.149450 # HC ALK
255 1 2 0.060000 6.202602 -6.959951 1.205452 # HC ALK
256 1 1 -0.240000 6.263603 -6.116951 5.406150 # CT ALK
257 1 2 0.060000 7.128603 -6.138950 6.010150 # HC ALK
258 1 2 0.060000 5.352602 -6.150951 5.994152 # HC ALK
259 1 2 0.060000 6.204603 -5.248951 4.743150 # HC ALK
260 1 2 0.060000 6.202602 -6.959951 4.799152 # HC ALK
261 1 1 -0.240000 6.263603 -2.034851 -5.374950 # CT ALK
262 1 2 0.060000 7.128603 -2.056850 -4.770950 # HC ALK
263 1 2 0.060000 5.352602 -2.068851 -4.786949 # HC ALK
264 1 2 0.060000 6.204603 -1.166851 -6.037950 # HC ALK
265 1 2 0.060000 6.202602 -2.877851 -5.981948 # HC ALK
266 1 1 -0.240000 6.263603 -2.034851 -1.781250 # CT ALK
267 1 2 0.060000 7.128603 -2.056850 -1.177250 # HC ALK
268 1 2 0.060000 5.352602 -2.068851 -1.193249 # HC ALK
269 1 2 0.060000 6.204603 -1.166851 -2.444250 # HC ALK
270 1 2 0.060000 6.202602 -2.877851 -2.388248 # HC ALK
271 1 1 -0.240000 6.263603 -2.034851 1.812450 # CT ALK
272 1 2 0.060000 7.128603 -2.056850 2.416450 # HC ALK
273 1 2 0.060000 5.352602 -2.068851 2.400451 # HC ALK
274 1 2 0.060000 6.204603 -1.166851 1.149450 # HC ALK
275 1 2 0.060000 6.202602 -2.877851 1.205452 # HC ALK
276 1 1 -0.240000 6.263603 -2.034851 5.406150 # CT ALK
277 1 2 0.060000 7.128603 -2.056850 6.010150 # HC ALK
278 1 2 0.060000 5.352602 -2.068851 5.994152 # HC ALK
279 1 2 0.060000 6.204603 -1.166851 4.743150 # HC ALK
280 1 2 0.060000 6.202602 -2.877851 4.799152 # HC ALK
281 1 1 -0.240000 6.263603 2.047249 -5.374950 # CT ALK
282 1 2 0.060000 7.128603 2.025249 -4.770950 # HC ALK
283 1 2 0.060000 5.352602 2.013248 -4.786949 # HC ALK
284 1 2 0.060000 6.204603 2.915249 -6.037950 # HC ALK
285 1 2 0.060000 6.202602 1.204248 -5.981948 # HC ALK
286 1 1 -0.240000 6.263603 2.047249 -1.781250 # CT ALK
287 1 2 0.060000 7.128603 2.025249 -1.177250 # HC ALK
288 1 2 0.060000 5.352602 2.013248 -1.193249 # HC ALK
289 1 2 0.060000 6.204603 2.915249 -2.444250 # HC ALK
290 1 2 0.060000 6.202602 1.204248 -2.388248 # HC ALK
291 1 1 -0.240000 6.263603 2.047249 1.812450 # CT ALK
292 1 2 0.060000 7.128603 2.025249 2.416450 # HC ALK
293 1 2 0.060000 5.352602 2.013248 2.400451 # HC ALK
294 1 2 0.060000 6.204603 2.915249 1.149450 # HC ALK
295 1 2 0.060000 6.202602 1.204248 1.205452 # HC ALK
296 1 1 -0.240000 6.263603 2.047249 5.406150 # CT ALK
297 1 2 0.060000 7.128603 2.025249 6.010150 # HC ALK
298 1 2 0.060000 5.352602 2.013248 5.994152 # HC ALK
299 1 2 0.060000 6.204603 2.915249 4.743150 # HC ALK
300 1 2 0.060000 6.202602 1.204248 4.799152 # HC ALK
301 1 1 -0.240000 6.263603 6.129349 -5.374950 # CT ALK
302 1 2 0.060000 7.128603 6.107349 -4.770950 # HC ALK
303 1 2 0.060000 5.352602 6.095348 -4.786949 # HC ALK
304 1 2 0.060000 6.204603 6.997349 -6.037950 # HC ALK
305 1 2 0.060000 6.202602 5.286348 -5.981948 # HC ALK
306 1 1 -0.240000 6.263603 6.129349 -1.781250 # CT ALK
307 1 2 0.060000 7.128603 6.107349 -1.177250 # HC ALK
308 1 2 0.060000 5.352602 6.095348 -1.193249 # HC ALK
309 1 2 0.060000 6.204603 6.997349 -2.444250 # HC ALK
310 1 2 0.060000 6.202602 5.286348 -2.388248 # HC ALK
311 1 1 -0.240000 6.263603 6.129349 1.812450 # CT ALK
312 1 2 0.060000 7.128603 6.107349 2.416450 # HC ALK
313 1 2 0.060000 5.352602 6.095348 2.400451 # HC ALK
314 1 2 0.060000 6.204603 6.997349 1.149450 # HC ALK
315 1 2 0.060000 6.202602 5.286348 1.205452 # HC ALK
316 1 1 -0.240000 6.263603 6.129349 5.406150 # CT ALK
317 1 2 0.060000 7.128603 6.107349 6.010150 # HC ALK
318 1 2 0.060000 5.352602 6.095348 5.994152 # HC ALK
319 1 2 0.060000 6.204603 6.997349 4.743150 # HC ALK
320 1 2 0.060000 6.202602 5.286348 4.799152 # HC ALK

 Bonds

1 1 1 2
2 1 1 3
3 1 1 4
4 1 1 5
5 1 6 7
6 1 6 8
7 1 6 9
8 1 6 10
9 1 11 12
10 1 11 13
11 1 11 14
12 1 11 15
13 1 16 17
14 1 16 18
15 1 16 19
16 1 16 20
17 1 21 22
18 1 21 23
19 1 21 24
20 1 21 25
21 1 26 27
22 1 26 28
23 1 26 29
24 1 26 30
25 1 31 32
26 1 31 33
27 1 31 34
28 1 31 35
29 1 36 37
30 1 36 38
31 1 36 39
32 1 36 40
33 1 41 42
34 1 41 43
35 1 41 44
36 1 41 45
37 1 46 47
38 1 46 48
39 1 46 49
40 1 46 50
41 1 51 52
42 1 51 53
43 1 51 54
44 1 51 55
45 1 56 57
46 1 56 58
47 1 56 59
48 1 56 60
49 1 61 62
50 1 61 63
51 1 61 64
52 1 61 65
53 1 66 67
54 1 66 68
55 1 66 69
56 1 66 70
57 1 71 72
58 1 71 73
59 1 71 74
60 1 71 75
61 1 76 77
62 1 76 78
63 1 76 79
64 1 76 80
65 1 81 82
66 1 81 83
67 1 81 84
68 1 81 85
69 1 86 87
70 1 86 88
71 1 86 89
72 1 86 90
73 1 91 92
74 1 91 93
75 1 91 94
76 1 91 95
77 1 96 97
78 1 96 98
79 1 96 99
80 1 96 100
81 1 101 102
82 1 101 103
83 1 101 104
84 1 101 105
85 1 106 107
86 1 106 108
87 1 106 109
88 1 106 110
89 1 111 112
90 1 111 113
91 1 111 114
92 1 111 115
93 1 116 117
94 1 116 118
95 1 116 119
96 1 116 120
97 1 121 122
98 1 121 123
99 1 121 124
100 1 121 125
101 1 126 127
102 1 126 128
103 1 126 129
104 1 126 130
105 1 131 132
106 1 131 133
107 1 131 134
108 1 131 135
109 1 136 137
110 1 136 138
111 1 136 139
112 1 136 140
113 1 141 142
114 1 141 143
115 1 141 144
116 1 141 145
117 1 146 147
118 1 146 148
119 1 146 149
120 1 146 150
121 1 151 152
122 1 151 153
123 1 151 154
124 1 151 155
125 1 156 157
126 1 156 158
127 1 156 159
128 1 156 160
129 1 161 162
130 1 161 163
131 1 161 164
132 1 161 165
133 1 166 167
134 1 166 168
135 1 166 169
136 1 166 170
137 1 171 172
138 1 171 173
139 1 171 174
140 1 171 175
141 1 176 177
142 1 176 178
143 1 176 179
144 1 176 180
145 1 181 182
146 1 181 183
147 1 181 184
148 1 181 185
149 1 186 187
150 1 186 188
151 1 186 189
152 1 186 190
153 1 191 192
154 1 191 193
155 1 191 194
156 1 191 195
157 1 196 197
158 1 196 198
159 1 196 199
160 1 196 200
161 1 201 202
162 1 201 203
163 1 201 204
164 1 201 205
165 1 206 207
166 1 206 208
167 1 206 209
168 1 206 210
169 1 211 212
170 1 211 213
171 1 211 214
172 1 211 215
173 1 216 217
174 1 216 218
175 1 216 219
176 1 216 220
177 1 221 222
178 1 221 223
179 1 221 224
180 1 221 225
181 1 226 227
182 1 226 228
183 1 226 229
184 1 226 230
185 1 231 232
186 1 231 233
187 1 231 234
188 1 231 235
189 1 236 237
190 1 236 238
191 1 236 239
192 1 236 240
193 1 241 242
194 1 241 243
195 1 241 244
196 1 241 245
197 1 246 247
198 1 246 248
199 1 246 249
200 1 246 250
201 1 251 252
202 1 251 253
203 1 251 254
204 1 251 255
205 1 256 257
206 1 256 258
207 1 256 259
208 1 256 260
209 1 261 262
210 1 261 263
211 1 261 264
212 1 261 265
213 1 266 267
214 1 266 268
215 1 266 269
216 1 266 270
217 1 271 272
218 1 271 273
219 1 271 274
220 1 271 275
221 1 276 277
222 1 276 278
223 1 276 279
224 1 276 280
225 1 281 282
226 1 281 283
227 1 281 284
228 1 281 285
229 1 286 287
230 1 286 288
231 1 286 289
232 1 286 290
233 1 291 292
234 1 291 293
235 1 291 294
236 1 291 295
237 1 296 297
238 1 296 298
239 1 296 299
240 1 296 300
241 1 301 302
242 1 301 303
243 1 301 304
244 1 301 305
245 1 306 307
246 1 306 308
247 1 306 309
248 1 306 310
249 1 311 312
250 1 311 313
251 1 311 314
252 1 311 315
253 1 316 317
254 1 316 318
255 1 316 319
256 1 316 320

 Angles

1 1 2 1 3
2 1 2 1 4
3 1 2 1 5
4 1 3 1 4
5 1 3 1 5
6 1 4 1 5
7 1 7 6 8
8 1 7 6 9
9 1 7 6 10
10 1 8 6 9
11 1 8 6 10
12 1 9 6 10
13 1 12 11 13
14 1 12 11 14
15 1 12 11 15
16 1 13 11 14
17 1 13 11 15
18 1 14 11 15
19 1 17 16 18
20 1 17 16 19
21 1 17 16 20
22 1 18 16 19
23 1 18 16 20
24 1 19 16 20
25 1 22 21 23
26 1 22 21 24
27 1 22 21 25
28 1 23 21 24
29 1 23 21 25
30 1 24 21 25
31 1 27 26 28
32 1 27 26 29
33 1 27 26 30
34 1 28 26 29
35 1 28 26 30
36 1 29 26 30
37 1 32 31 33
38 1 32 31 34
39 1 32 31 35
40 1 33 31 34
41 1 33 31 35
42 1 34 31 35
43 1 37 36 38
44 1 37 36 39
45 1 37 36 40
46 1 38 36 39
47 1 38 36 40
48 1 39 36 40
49 1 42 41 43
50 1 42 41 44
51 1 42 41 45
52 1 43 41 44
53 1 43 41 45
54 1 44 41 45
55 1 47 46 48
56 1 47 46 49
57 1 47 46 50
58 1 48 46 49
59 1 48 46 50
60 1 49 46 50
61 1 52 51 53
62 1 52 51 54
63 1 52 51 55
64 1 53 51 54
65 1 53 51 55
66 1 54 51 55
67 1 57 56 58
68 1 57 56 59
69 1 57 56 60
70 1 58 56 59
71 1 58 56 60
72 1 59 56 60
73 1 62 61 63
74 1 62 61 64
75 1 62 61 65
76 1 63 61 64
77 1 63 61 65
78 1 64 61 65
79 1 67 66 68
80 1 67 66 69
81 1 67 66 70
82 1 68 66 69
83 1 68 66 70
84 1 69 66 70
85 1 72 71 73
86 1 72 71 74
87 1 72 71 75
88 1 73 71 74
89 1 73 71 75
90 1 74 71 75
91 1 77 76 78
92 1 77 76 79
93 1 77 76 80
94 1 78 76 79
95 1 78 76 80
96 1 79 76 80
97 1 82 81 83
98 1 82 81 84
99 1 82 81 85
100 1 83 81 84
101 1 83 81 85
102 1 84 81 85
103 1 87 86 88
104 1 87 86 89
105 1 87 86 90
106 1 88 86 89
107 1 88 86 90
108 1 89 86 90
109 1 92 91 93
110 1 92 91 94
111 1 92 91 95
112 1 93 91 94
113 1 93 91 95
114 1 94 91 95
115 1 97 96 98
116 1 97 96 99
117 1 97 96 100
118 1 98 96 99
119 1 98 96 100
120 1 99 96 100
121 1 102 101 103
122 1 102 101 104
123 1 102 101 105
124 1 103 101 104
125 1 103 101 105
126 1 104 101 105
127 1 107 106 108
128 1 107 106 109
129 1 107 106 110
130 1 108 106 109
131 1 108 106 110
132 1 109 106 110
133 1 112 111 113
134 1 112 111 114
135 1 112 111 115
136 1 113 111 114
137 1 113 111 115
138 1 114 111 115
139 1 117 116 118
140 1 117 116 119
141 1 117 116 120
142 1 118 116 119
143 1 118 116 120
144 1 119 116 120
145 1 122 121 123
146 1 122 121 124
147 1 122 121 125
148 1 123 121 124
149 1 123 121 125
150 1 124 121 125
151 1 127 126 128
152 1 127 126 129
153 1 127 126 130
154 1 128 126 129
155 1 128 126 130
156 1 129 126 130
157 1 132 131 133
158 1 132 131 134
159 1 132 131 135
160 1 133 131 134
161 1 133 131 135
162 1 134 131 135
163 1 137 136 138
164 1 137 136 139
165 1 137 136 140
166 1 138 136 139
167 1 138 136 140
168 1 139 136 140
169 1 142 141 143
170 1 142 141 144
171 1 142 141 145
172 1 143 141 144
173 1 143 141 145
174 1 144 141 145
175 1 147 146 148
176 1 147 146 149
177 1 147 146 150
178 1 148 146 149
179 1 148 146 150
180 1 149 146 150
181 1 152 151 153
182 1 152 151 154
183 1 152 151 155
184 1 153 151 154
185 1 153 151 155
186 1 154 151 155
187 1 157 156 158
188 1 157 156 159
189 1 157 156 160
190 1 158 156 159
191 1 158 156 160
192 1 159 156 160
193 1 162 161 163
194 1 162 161 164
195 1 162 161 165
196 1 163 161 164
197 1 163 161 165
198 1 164 161 165
199 1 167 166 168
200 1 167 166 169
201 1 167 166 170
202 1 168 166 169
203 1 168 166 170
204 1 169 166 170
205 1 172 171 173
206 1 172 171 174
207 1 172 171 175
208 1 173 171 174
209 1 173 171 175
210 1 174 171 175
211 1 177 176 178
212 1 177 176 179
213 1 177 176 180
214 1 178 176 179
215 1 178 176 180
216 1 179 176 180
217 1 182 181 183
218 1 182 181 184
219 1 182 181 185
220 1 183 181 184
221 1 183 181 185
222 1 184 181 185
223 1 187 186 188
224 1 187 186 189
225 1 187 186 190
226 1 188 186 189
227 1 188 186 190
228 1 189 186 190
229 1 192 191 193
230 1 192 191 194
231 1 192 191 195
232 1 193 191 194
233 1 193 191 195
234 1 194 191 195
235 1 197 196 198
236 1 197 196 199
237 1 197 196 200
238 1 198 196 199
239 1 198 196 200
240 1 199 196 200
241 1 202 201 203
242 1 202 201 204
243 1 202 201 205
244 1 203 201 204
245 1 203 201 205
246 1 204 201 205
247 1 207 206 208
248 1 207 206 209
249 1 207 206 210
250 1 208 206 209
251 1 208 206 210
252 1 209 206 210
253 1 212 211 213
254 1 212 211 214
255 1 212 211 215
256 1 213 211 214
257 1 213 211 215
258 1 214 211 215
259 1 217 216 218
260 1 217 216 219
261 1 217 216 220
262 1 218 216 219
263 1 218 216 220
264 1 219 216 220
265 1 222 221 223
266 1 222 221 224
267 1 222 221 225
268 1 223 221 224
269 1 223 221 225
270 1 224 221 225
271 1 227 226 228
272 1 227 226 229
273 1 227 226 230
274 1 228 226 229
275 1 228 226 230
276 1 229 226 230
277 1 232 231 233
278 1 232 231 234
279 1 232 231 235
280 1 233 231 234
281 1 233 231 235
282 1 234 231 235
283 1 237 236 238
284 1 237 236 239
285 1 237 236 240
286 1 238 236 239
287 1 238 236 240
288 1 239 236 240
289 1 242 241 243
290 1 242 241 244
291 1 242 241 245
292 1 243 241 244
293 1 243 241 245
294 1 244 241 245
295 1 247 246 248
296 1 247 246 249
297 1 247 246 250
298 1 248 246 249
299 1 248 246 250
300 1 249 246 250
301 1 252 251 253
302 1 252 251 254
303 1 252 251 255
304 1 253 251 254
305 1 253 251 255
306 1 254 251 255
307 1 257 256 258
308 1 257 256 259
309 1 257 256 260
310 1 258 256 259
311 1 258 256 260
312 1 259 256 260
313 1 262 261 263
314 1 262 261 264
315 1 262 261 265
316 1 263 261 264
317 1 263 261 265
318 1 264 261 265
319 1 267 266 268
320 1 267 266 269
321 1 267 266 270
322 1 268 266 269
323 1 268 266 270
324 1 269 266 270
325 1 272 271 273
326 1 272 271 274
327 1 272 271 275
328 1 273 271 274
329 1 273 271 275
330 1 274 271 275
331 1 277 276 278
332 1 277 276 279
333 1 277 276 280
334 1 278 276 279
335 1 278 276 280
336 1 279 276 280
337 1 282 281 283
338 1 282 281 284
339 1 282 281 285
340 1 283 281 284
341 1 283 281 285
342 1 284 281 285
343 1 287 286 288
344 1 287 286 289
345 1 287 286 290
346 1 288 286 289
347 1 288 286 290
348 1 289 286 290
349 1 292 291 293
350 1 292 291 294
351 1 292 291 295
352 1 293 291 294
353 1 293 291 295
354 1 294 291 295
355 1 297 296 298
356 1 297 296 299
357 1 297 296 300
358 1 298 296 299
359 1 298 296 300
360 1 299 296 300
361 1 302 301 303
362 1 302 301 304
363 1 302 301 305
364 1 303 301 304
365 1 303 301 305
366 1 304 301 305
367 1 307 306 308
368 1 307 306 309
369 1 307 306 310
370 1 308 306 309
371 1 308 306 310
372 1 309 306 310
373 1 312 311 313
374 1 312 311 314
375 1 312 311 315
376 1 313 311 314
377 1 313 311 315
378 1 314 311 315
379 1 317 316 318
380 1 317 316 319
381 1 317 316 320
382 1 318 316 319
383 1 318 316 320
384 1 319 316 320

