LAMMPS data file. CGCMM style. atom_style full generated by VMD/TopoTools v1.5 on Sat Mar 14 15:19:39 AEDT 2015

 512 atoms
 2 atom types

0 28.834391 xlo xhi
0 28.834391 ylo yhi
0 28.834391 zlo zhi


 Masses

 1 15.999400 # A
 2 15.999400 # B

 Atoms

1 1 1 -0.847600 0.816000 0.000000 0.000000 # A WAT
2 2 2 -0.847600 0.816000 0.000000 2.500000 # B WAT
3 3 1 -0.847600 0.816000 0.000000 5.000000 # A WAT
4 4 2 -0.847600 0.816000 0.000000 7.500000 # B WAT
5 5 1 -0.847600 0.816000 0.000000 10.000000 # A WAT
6 6 2 -0.847600 0.816000 0.000000 12.500000 # B WAT
7 7 1 -0.847600 0.816000 0.000000 15.000000 # A WAT
8 8 2 -0.847600 0.816000 0.000000 17.500000 # B WAT
9 9 1 -0.847600 0.816000 2.500000 0.000000 # A WAT
10 10 2 -0.847600 0.816000 2.500000 2.500000 # B WAT
11 11 1 -0.847600 0.816000 2.500000 5.000000 # A WAT
12 12 2 -0.847600 0.816000 2.500000 7.500000 # B WAT
13 13 1 -0.847600 0.816000 2.500000 10.000000 # A WAT
14 14 2 -0.847600 0.816000 2.500000 12.500000 # B WAT
15 15 1 -0.847600 0.816000 2.500000 15.000000 # A WAT
16 16 2 -0.847600 0.816000 2.500000 17.500000 # B WAT
17 17 1 -0.847600 0.816000 5.000000 0.000000 # A WAT
18 18 2 -0.847600 0.816000 5.000000 2.500000 # B WAT
19 19 1 -0.847600 0.816000 5.000000 5.000000 # A WAT
20 20 2 -0.847600 0.816000 5.000000 7.500000 # B WAT
21 21 1 -0.847600 0.816000 5.000000 10.000000 # A WAT
22 22 2 -0.847600 0.816000 5.000000 12.500000 # B WAT
23 23 1 -0.847600 0.816000 5.000000 15.000000 # A WAT
24 24 2 -0.847600 0.816000 5.000000 17.500000 # B WAT
25 25 1 -0.847600 0.816000 7.500000 0.000000 # A WAT
26 26 2 -0.847600 0.816000 7.500000 2.500000 # B WAT
27 27 1 -0.847600 0.816000 7.500000 5.000000 # A WAT
28 28 2 -0.847600 0.816000 7.500000 7.500000 # B WAT
29 29 1 -0.847600 0.816000 7.500000 10.000000 # A WAT
30 30 2 -0.847600 0.816000 7.500000 12.500000 # B WAT
31 31 1 -0.847600 0.816000 7.500000 15.000000 # A WAT
32 32 2 -0.847600 0.816000 7.500000 17.500000 # B WAT
33 33 1 -0.847600 0.816000 10.000000 0.000000 # A WAT
34 34 2 -0.847600 0.816000 10.000000 2.500000 # B WAT
35 35 1 -0.847600 0.816000 10.000000 5.000000 # A WAT
36 36 2 -0.847600 0.816000 10.000000 7.500000 # B WAT
37 37 1 -0.847600 0.816000 10.000000 10.000000 # A WAT
38 38 2 -0.847600 0.816000 10.000000 12.500000 # B WAT
39 39 1 -0.847600 0.816000 10.000000 15.000000 # A WAT
40 40 2 -0.847600 0.816000 10.000000 17.500000 # B WAT
41 41 1 -0.847600 0.816000 12.500000 0.000000 # A WAT
42 42 2 -0.847600 0.816000 12.500000 2.500000 # B WAT
43 43 1 -0.847600 0.816000 12.500000 5.000000 # A WAT
44 44 2 -0.847600 0.816000 12.500000 7.500000 # B WAT
45 45 1 -0.847600 0.816000 12.500000 10.000000 # A WAT
46 46 2 -0.847600 0.816000 12.500000 12.500000 # B WAT
47 47 1 -0.847600 0.816000 12.500000 15.000000 # A WAT
48 48 2 -0.847600 0.816000 12.500000 17.500000 # B WAT
49 49 1 -0.847600 0.816000 15.000000 0.000000 # A WAT
50 50 2 -0.847600 0.816000 15.000000 2.500000 # B WAT
51 51 1 -0.847600 0.816000 15.000000 5.000000 # A WAT
52 52 2 -0.847600 0.816000 15.000000 7.500000 # B WAT
53 53 1 -0.847600 0.816000 15.000000 10.000000 # A WAT
54 54 2 -0.847600 0.816000 15.000000 12.500000 # B WAT
55 55 1 -0.847600 0.816000 15.000000 15.000000 # A WAT
56 56 2 -0.847600 0.816000 15.000000 17.500000 # B WAT
57 57 1 -0.847600 0.816000 17.500000 0.000000 # A WAT
58 58 2 -0.847600 0.816000 17.500000 2.500000 # B WAT
59 59 1 -0.847600 0.816000 17.500000 5.000000 # A WAT
60 60 2 -0.847600 0.816000 17.500000 7.500000 # B WAT
61 61 1 -0.847600 0.816000 17.500000 10.000000 # A WAT
62 62 2 -0.847600 0.816000 17.500000 12.500000 # B WAT
63 63 1 -0.847600 0.816000 17.500000 15.000000 # A WAT
64 64 2 -0.847600 0.816000 17.500000 17.500000 # B WAT
65 65 1 -0.847600 3.316000 0.000000 0.000000 # A WAT
66 66 2 -0.847600 3.316000 0.000000 2.500000 # B WAT
67 67 1 -0.847600 3.316000 0.000000 5.000000 # A WAT
68 68 2 -0.847600 3.316000 0.000000 7.500000 # B WAT
69 69 1 -0.847600 3.316000 0.000000 10.000000 # A WAT
70 70 2 -0.847600 3.316000 0.000000 12.500000 # B WAT
71 71 1 -0.847600 3.316000 0.000000 15.000000 # A WAT
72 72 2 -0.847600 3.316000 0.000000 17.500000 # B WAT
73 73 1 -0.847600 3.316000 2.500000 0.000000 # A WAT
74 74 2 -0.847600 3.316000 2.500000 2.500000 # B WAT
75 75 1 -0.847600 3.316000 2.500000 5.000000 # A WAT
76 76 2 -0.847600 3.316000 2.500000 7.500000 # B WAT
77 77 1 -0.847600 3.316000 2.500000 10.000000 # A WAT
78 78 2 -0.847600 3.316000 2.500000 12.500000 # B WAT
79 79 1 -0.847600 3.316000 2.500000 15.000000 # A WAT
80 80 2 -0.847600 3.316000 2.500000 17.500000 # B WAT
81 81 1 -0.847600 3.316000 5.000000 0.000000 # A WAT
82 82 2 -0.847600 3.316000 5.000000 2.500000 # B WAT
83 83 1 -0.847600 3.316000 5.000000 5.000000 # A WAT
84 84 2 -0.847600 3.316000 5.000000 7.500000 # B WAT
85 85 1 -0.847600 3.316000 5.000000 10.000000 # A WAT
86 86 2 -0.847600 3.316000 5.000000 12.500000 # B WAT
87 87 1 -0.847600 3.316000 5.000000 15.000000 # A WAT
88 88 2 -0.847600 3.316000 5.000000 17.500000 # B WAT
89 89 1 -0.847600 3.316000 7.500000 0.000000 # A WAT
90 90 2 -0.847600 3.316000 7.500000 2.500000 # B WAT
91 91 1 -0.847600 3.316000 7.500000 5.000000 # A WAT
92 92 2 -0.847600 3.316000 7.500000 7.500000 # B WAT
93 93 1 -0.847600 3.316000 7.500000 10.000000 # A WAT
94 94 2 -0.847600 3.316000 7.500000 12.500000 # B WAT
95 95 1 -0.847600 3.316000 7.500000 15.000000 # A WAT
96 96 2 -0.847600 3.316000 7.500000 17.500000 # B WAT
97 97 1 -0.847600 3.316000 10.000000 0.000000 # A WAT
98 98 2 -0.847600 3.316000 10.000000 2.500000 # B WAT
99 99 1 -0.847600 3.316000 10.000000 5.000000 # A WAT
100 100 2 -0.847600 3.316000 10.000000 7.500000 # B WAT
101 101 1 -0.847600 3.316000 10.000000 10.000000 # A WAT
102 102 2 -0.847600 3.316000 10.000000 12.500000 # B WAT
103 103 1 -0.847600 3.316000 10.000000 15.000000 # A WAT
104 104 2 -0.847600 3.316000 10.000000 17.500000 # B WAT
105 105 1 -0.847600 3.316000 12.500000 0.000000 # A WAT
106 106 2 -0.847600 3.316000 12.500000 2.500000 # B WAT
107 107 1 -0.847600 3.316000 12.500000 5.000000 # A WAT
108 108 2 -0.847600 3.316000 12.500000 7.500000 # B WAT
109 109 1 -0.847600 3.316000 12.500000 10.000000 # A WAT
110 110 2 -0.847600 3.316000 12.500000 12.500000 # B WAT
111 111 1 -0.847600 3.316000 12.500000 15.000000 # A WAT
112 112 2 -0.847600 3.316000 12.500000 17.500000 # B WAT
113 113 1 -0.847600 3.316000 15.000000 0.000000 # A WAT
114 114 2 -0.847600 3.316000 15.000000 2.500000 # B WAT
115 115 1 -0.847600 3.316000 15.000000 5.000000 # A WAT
116 116 2 -0.847600 3.316000 15.000000 7.500000 # B WAT
117 117 1 -0.847600 3.316000 15.000000 10.000000 # A WAT
118 118 2 -0.847600 3.316000 15.000000 12.500000 # B WAT
119 119 1 -0.847600 3.316000 15.000000 15.000000 # A WAT
120 120 2 -0.847600 3.316000 15.000000 17.500000 # B WAT
121 121 1 -0.847600 3.316000 17.500000 0.000000 # A WAT
122 122 2 -0.847600 3.316000 17.500000 2.500000 # B WAT
123 123 1 -0.847600 3.316000 17.500000 5.000000 # A WAT
124 124 2 -0.847600 3.316000 17.500000 7.500000 # B WAT
125 125 1 -0.847600 3.316000 17.500000 10.000000 # A WAT
126 126 2 -0.847600 3.316000 17.500000 12.500000 # B WAT
127 127 1 -0.847600 3.316000 17.500000 15.000000 # A WAT
128 128 2 -0.847600 3.316000 17.500000 17.500000 # B WAT
129 129 1 -0.847600 5.816000 0.000000 0.000000 # A WAT
130 130 2 -0.847600 5.816000 0.000000 2.500000 # B WAT
131 131 1 -0.847600 5.816000 0.000000 5.000000 # A WAT
132 132 2 -0.847600 5.816000 0.000000 7.500000 # B WAT
133 133 1 -0.847600 5.816000 0.000000 10.000000 # A WAT
134 134 2 -0.847600 5.816000 0.000000 12.500000 # B WAT
135 135 1 -0.847600 5.816000 0.000000 15.000000 # A WAT
136 136 2 -0.847600 5.816000 0.000000 17.500000 # B WAT
137 137 1 -0.847600 5.816000 2.500000 0.000000 # A WAT
138 138 2 -0.847600 5.816000 2.500000 2.500000 # B WAT
139 139 1 -0.847600 5.816000 2.500000 5.000000 # A WAT
140 140 2 -0.847600 5.816000 2.500000 7.500000 # B WAT
141 141 1 -0.847600 5.816000 2.500000 10.000000 # A WAT
142 142 2 -0.847600 5.816000 2.500000 12.500000 # B WAT
143 143 1 -0.847600 5.816000 2.500000 15.000000 # A WAT
144 144 2 -0.847600 5.816000 2.500000 17.500000 # B WAT
145 145 1 -0.847600 5.816000 5.000000 0.000000 # A WAT
146 146 2 -0.847600 5.816000 5.000000 2.500000 # B WAT
147 147 1 -0.847600 5.816000 5.000000 5.000000 # A WAT
148 148 2 -0.847600 5.816000 5.000000 7.500000 # B WAT
149 149 1 -0.847600 5.816000 5.000000 10.000000 # A WAT
150 150 2 -0.847600 5.816000 5.000000 12.500000 # B WAT
151 151 1 -0.847600 5.816000 5.000000 15.000000 # A WAT
152 152 2 -0.847600 5.816000 5.000000 17.500000 # B WAT
153 153 1 -0.847600 5.816000 7.500000 0.000000 # A WAT
154 154 2 -0.847600 5.816000 7.500000 2.500000 # B WAT
155 155 1 -0.847600 5.816000 7.500000 5.000000 # A WAT
156 156 2 -0.847600 5.816000 7.500000 7.500000 # B WAT
157 157 1 -0.847600 5.816000 7.500000 10.000000 # A WAT
158 158 2 -0.847600 5.816000 7.500000 12.500000 # B WAT
159 159 1 -0.847600 5.816000 7.500000 15.000000 # A WAT
160 160 2 -0.847600 5.816000 7.500000 17.500000 # B WAT
161 161 1 -0.847600 5.816000 10.000000 0.000000 # A WAT
162 162 2 -0.847600 5.816000 10.000000 2.500000 # B WAT
163 163 1 -0.847600 5.816000 10.000000 5.000000 # A WAT
164 164 2 -0.847600 5.816000 10.000000 7.500000 # B WAT
165 165 1 -0.847600 5.816000 10.000000 10.000000 # A WAT
166 166 2 -0.847600 5.816000 10.000000 12.500000 # B WAT
167 167 1 -0.847600 5.816000 10.000000 15.000000 # A WAT
168 168 2 -0.847600 5.816000 10.000000 17.500000 # B WAT
169 169 1 -0.847600 5.816000 12.500000 0.000000 # A WAT
170 170 2 -0.847600 5.816000 12.500000 2.500000 # B WAT
171 171 1 -0.847600 5.816000 12.500000 5.000000 # A WAT
172 172 2 -0.847600 5.816000 12.500000 7.500000 # B WAT
173 173 1 -0.847600 5.816000 12.500000 10.000000 # A WAT
174 174 2 -0.847600 5.816000 12.500000 12.500000 # B WAT
175 175 1 -0.847600 5.816000 12.500000 15.000000 # A WAT
176 176 2 -0.847600 5.816000 12.500000 17.500000 # B WAT
177 177 1 -0.847600 5.816000 15.000000 0.000000 # A WAT
178 178 2 -0.847600 5.816000 15.000000 2.500000 # B WAT
179 179 1 -0.847600 5.816000 15.000000 5.000000 # A WAT
180 180 2 -0.847600 5.816000 15.000000 7.500000 # B WAT
181 181 1 -0.847600 5.816000 15.000000 10.000000 # A WAT
182 182 2 -0.847600 5.816000 15.000000 12.500000 # B WAT
183 183 1 -0.847600 5.816000 15.000000 15.000000 # A WAT
184 184 2 -0.847600 5.816000 15.000000 17.500000 # B WAT
185 185 1 -0.847600 5.816000 17.500000 0.000000 # A WAT
186 186 2 -0.847600 5.816000 17.500000 2.500000 # B WAT
187 187 1 -0.847600 5.816000 17.500000 5.000000 # A WAT
188 188 2 -0.847600 5.816000 17.500000 7.500000 # B WAT
189 189 1 -0.847600 5.816000 17.500000 10.000000 # A WAT
190 190 2 -0.847600 5.816000 17.500000 12.500000 # B WAT
191 191 1 -0.847600 5.816000 17.500000 15.000000 # A WAT
192 192 2 -0.847600 5.816000 17.500000 17.500000 # B WAT
193 193 1 -0.847600 8.316000 0.000000 0.000000 # A WAT
194 194 2 -0.847600 8.316000 0.000000 2.500000 # B WAT
195 195 1 -0.847600 8.316000 0.000000 5.000000 # A WAT
196 196 2 -0.847600 8.316000 0.000000 7.500000 # B WAT
197 197 1 -0.847600 8.316000 0.000000 10.000000 # A WAT
198 198 2 -0.847600 8.316000 0.000000 12.500000 # B WAT
199 199 1 -0.847600 8.316000 0.000000 15.000000 # A WAT
200 200 2 -0.847600 8.316000 0.000000 17.500000 # B WAT
201 201 1 -0.847600 8.316000 2.500000 0.000000 # A WAT
202 202 2 -0.847600 8.316000 2.500000 2.500000 # B WAT
203 203 1 -0.847600 8.316000 2.500000 5.000000 # A WAT
204 204 2 -0.847600 8.316000 2.500000 7.500000 # B WAT
205 205 1 -0.847600 8.316000 2.500000 10.000000 # A WAT
206 206 2 -0.847600 8.316000 2.500000 12.500000 # B WAT
207 207 1 -0.847600 8.316000 2.500000 15.000000 # A WAT
208 208 2 -0.847600 8.316000 2.500000 17.500000 # B WAT
209 209 1 -0.847600 8.316000 5.000000 0.000000 # A WAT
210 210 2 -0.847600 8.316000 5.000000 2.500000 # B WAT
211 211 1 -0.847600 8.316000 5.000000 5.000000 # A WAT
212 212 2 -0.847600 8.316000 5.000000 7.500000 # B WAT
213 213 1 -0.847600 8.316000 5.000000 10.000000 # A WAT
214 214 2 -0.847600 8.316000 5.000000 12.500000 # B WAT
215 215 1 -0.847600 8.316000 5.000000 15.000000 # A WAT
216 216 2 -0.847600 8.316000 5.000000 17.500000 # B WAT
217 217 1 -0.847600 8.316000 7.500000 0.000000 # A WAT
218 218 2 -0.847600 8.316000 7.500000 2.500000 # B WAT
219 219 1 -0.847600 8.316000 7.500000 5.000000 # A WAT
220 220 2 -0.847600 8.316000 7.500000 7.500000 # B WAT
221 221 1 -0.847600 8.316000 7.500000 10.000000 # A WAT
222 222 2 -0.847600 8.316000 7.500000 12.500000 # B WAT
223 223 1 -0.847600 8.316000 7.500000 15.000000 # A WAT
224 224 2 -0.847600 8.316000 7.500000 17.500000 # B WAT
225 225 1 -0.847600 8.316000 10.000000 0.000000 # A WAT
226 226 2 -0.847600 8.316000 10.000000 2.500000 # B WAT
227 227 1 -0.847600 8.316000 10.000000 5.000000 # A WAT
228 228 2 -0.847600 8.316000 10.000000 7.500000 # B WAT
229 229 1 -0.847600 8.316000 10.000000 10.000000 # A WAT
230 230 2 -0.847600 8.316000 10.000000 12.500000 # B WAT
231 231 1 -0.847600 8.316000 10.000000 15.000000 # A WAT
232 232 2 -0.847600 8.316000 10.000000 17.500000 # B WAT
233 233 1 -0.847600 8.316000 12.500000 0.000000 # A WAT
234 234 2 -0.847600 8.316000 12.500000 2.500000 # B WAT
235 235 1 -0.847600 8.316000 12.500000 5.000000 # A WAT
236 236 2 -0.847600 8.316000 12.500000 7.500000 # B WAT
237 237 1 -0.847600 8.316000 12.500000 10.000000 # A WAT
238 238 2 -0.847600 8.316000 12.500000 12.500000 # B WAT
239 239 1 -0.847600 8.316000 12.500000 15.000000 # A WAT
240 240 2 -0.847600 8.316000 12.500000 17.500000 # B WAT
241 241 1 -0.847600 8.316000 15.000000 0.000000 # A WAT
242 242 2 -0.847600 8.316000 15.000000 2.500000 # B WAT
243 243 1 -0.847600 8.316000 15.000000 5.000000 # A WAT
244 244 2 -0.847600 8.316000 15.000000 7.500000 # B WAT
245 245 1 -0.847600 8.316000 15.000000 10.000000 # A WAT
246 246 2 -0.847600 8.316000 15.000000 12.500000 # B WAT
247 247 1 -0.847600 8.316000 15.000000 15.000000 # A WAT
248 248 2 -0.847600 8.316000 15.000000 17.500000 # B WAT
249 249 1 -0.847600 8.316000 17.500000 0.000000 # A WAT
250 250 2 -0.847600 8.316000 17.500000 2.500000 # B WAT
251 251 1 -0.847600 8.316000 17.500000 5.000000 # A WAT
252 252 2 -0.847600 8.316000 17.500000 7.500000 # B WAT
253 253 1 -0.847600 8.316000 17.500000 10.000000 # A WAT
254 254 2 -0.847600 8.316000 17.500000 12.500000 # B WAT
255 255 1 -0.847600 8.316000 17.500000 15.000000 # A WAT
256 256 2 -0.847600 8.316000 17.500000 17.500000 # B WAT
257 257 1 -0.847600 10.816000 0.000000 0.000000 # A WAT
258 258 2 -0.847600 10.816000 0.000000 2.500000 # B WAT
259 259 1 -0.847600 10.816000 0.000000 5.000000 # A WAT
260 260 2 -0.847600 10.816000 0.000000 7.500000 # B WAT
261 261 1 -0.847600 10.816000 0.000000 10.000000 # A WAT
262 262 2 -0.847600 10.816000 0.000000 12.500000 # B WAT
263 263 1 -0.847600 10.816000 0.000000 15.000000 # A WAT
264 264 2 -0.847600 10.816000 0.000000 17.500000 # B WAT
265 265 1 -0.847600 10.816000 2.500000 0.000000 # A WAT
266 266 2 -0.847600 10.816000 2.500000 2.500000 # B WAT
267 267 1 -0.847600 10.816000 2.500000 5.000000 # A WAT
268 268 2 -0.847600 10.816000 2.500000 7.500000 # B WAT
269 269 1 -0.847600 10.816000 2.500000 10.000000 # A WAT
270 270 2 -0.847600 10.816000 2.500000 12.500000 # B WAT
271 271 1 -0.847600 10.816000 2.500000 15.000000 # A WAT
272 272 2 -0.847600 10.816000 2.500000 17.500000 # B WAT
273 273 1 -0.847600 10.816000 5.000000 0.000000 # A WAT
274 274 2 -0.847600 10.816000 5.000000 2.500000 # B WAT
275 275 1 -0.847600 10.816000 5.000000 5.000000 # A WAT
276 276 2 -0.847600 10.816000 5.000000 7.500000 # B WAT
277 277 1 -0.847600 10.816000 5.000000 10.000000 # A WAT
278 278 2 -0.847600 10.816000 5.000000 12.500000 # B WAT
279 279 1 -0.847600 10.816000 5.000000 15.000000 # A WAT
280 280 2 -0.847600 10.816000 5.000000 17.500000 # B WAT
281 281 1 -0.847600 10.816000 7.500000 0.000000 # A WAT
282 282 2 -0.847600 10.816000 7.500000 2.500000 # B WAT
283 283 1 -0.847600 10.816000 7.500000 5.000000 # A WAT
284 284 2 -0.847600 10.816000 7.500000 7.500000 # B WAT
285 285 1 -0.847600 10.816000 7.500000 10.000000 # A WAT
286 286 2 -0.847600 10.816000 7.500000 12.500000 # B WAT
287 287 1 -0.847600 10.816000 7.500000 15.000000 # A WAT
288 288 2 -0.847600 10.816000 7.500000 17.500000 # B WAT
289 289 1 -0.847600 10.816000 10.000000 0.000000 # A WAT
290 290 2 -0.847600 10.816000 10.000000 2.500000 # B WAT
291 291 1 -0.847600 10.816000 10.000000 5.000000 # A WAT
292 292 2 -0.847600 10.816000 10.000000 7.500000 # B WAT
293 293 1 -0.847600 10.816000 10.000000 10.000000 # A WAT
294 294 2 -0.847600 10.816000 10.000000 12.500000 # B WAT
295 295 1 -0.847600 10.816000 10.000000 15.000000 # A WAT
296 296 2 -0.847600 10.816000 10.000000 17.500000 # B WAT
297 297 1 -0.847600 10.816000 12.500000 0.000000 # A WAT
298 298 2 -0.847600 10.816000 12.500000 2.500000 # B WAT
299 299 1 -0.847600 10.816000 12.500000 5.000000 # A WAT
300 300 2 -0.847600 10.816000 12.500000 7.500000 # B WAT
301 301 1 -0.847600 10.816000 12.500000 10.000000 # A WAT
302 302 2 -0.847600 10.816000 12.500000 12.500000 # B WAT
303 303 1 -0.847600 10.816000 12.500000 15.000000 # A WAT
304 304 2 -0.847600 10.816000 12.500000 17.500000 # B WAT
305 305 1 -0.847600 10.816000 15.000000 0.000000 # A WAT
306 306 2 -0.847600 10.816000 15.000000 2.500000 # B WAT
307 307 1 -0.847600 10.816000 15.000000 5.000000 # A WAT
308 308 2 -0.847600 10.816000 15.000000 7.500000 # B WAT
309 309 1 -0.847600 10.816000 15.000000 10.000000 # A WAT
310 310 2 -0.847600 10.816000 15.000000 12.500000 # B WAT
311 311 1 -0.847600 10.816000 15.000000 15.000000 # A WAT
312 312 2 -0.847600 10.816000 15.000000 17.500000 # B WAT
313 313 1 -0.847600 10.816000 17.500000 0.000000 # A WAT
314 314 2 -0.847600 10.816000 17.500000 2.500000 # B WAT
315 315 1 -0.847600 10.816000 17.500000 5.000000 # A WAT
316 316 2 -0.847600 10.816000 17.500000 7.500000 # B WAT
317 317 1 -0.847600 10.816000 17.500000 10.000000 # A WAT
318 318 2 -0.847600 10.816000 17.500000 12.500000 # B WAT
319 319 1 -0.847600 10.816000 17.500000 15.000000 # A WAT
320 320 2 -0.847600 10.816000 17.500000 17.500000 # B WAT
321 321 1 -0.847600 13.316000 0.000000 0.000000 # A WAT
322 322 2 -0.847600 13.316000 0.000000 2.500000 # B WAT
323 323 1 -0.847600 13.316000 0.000000 5.000000 # A WAT
324 324 2 -0.847600 13.316000 0.000000 7.500000 # B WAT
325 325 1 -0.847600 13.316000 0.000000 10.000000 # A WAT
326 326 2 -0.847600 13.316000 0.000000 12.500000 # B WAT
327 327 1 -0.847600 13.316000 0.000000 15.000000 # A WAT
328 328 2 -0.847600 13.316000 0.000000 17.500000 # B WAT
329 329 1 -0.847600 13.316000 2.500000 0.000000 # A WAT
330 330 2 -0.847600 13.316000 2.500000 2.500000 # B WAT
331 331 1 -0.847600 13.316000 2.500000 5.000000 # A WAT
332 332 2 -0.847600 13.316000 2.500000 7.500000 # B WAT
333 333 1 -0.847600 13.316000 2.500000 10.000000 # A WAT
334 334 2 -0.847600 13.316000 2.500000 12.500000 # B WAT
335 335 1 -0.847600 13.316000 2.500000 15.000000 # A WAT
336 336 2 -0.847600 13.316000 2.500000 17.500000 # B WAT
337 337 1 -0.847600 13.316000 5.000000 0.000000 # A WAT
338 338 2 -0.847600 13.316000 5.000000 2.500000 # B WAT
339 339 1 -0.847600 13.316000 5.000000 5.000000 # A WAT
340 340 2 -0.847600 13.316000 5.000000 7.500000 # B WAT
341 341 1 -0.847600 13.316000 5.000000 10.000000 # A WAT
342 342 2 -0.847600 13.316000 5.000000 12.500000 # B WAT
343 343 1 -0.847600 13.316000 5.000000 15.000000 # A WAT
344 344 2 -0.847600 13.316000 5.000000 17.500000 # B WAT
345 345 1 -0.847600 13.316000 7.500000 0.000000 # A WAT
346 346 2 -0.847600 13.316000 7.500000 2.500000 # B WAT
347 347 1 -0.847600 13.316000 7.500000 5.000000 # A WAT
348 348 2 -0.847600 13.316000 7.500000 7.500000 # B WAT
349 349 1 -0.847600 13.316000 7.500000 10.000000 # A WAT
350 350 2 -0.847600 13.316000 7.500000 12.500000 # B WAT
351 351 1 -0.847600 13.316000 7.500000 15.000000 # A WAT
352 352 2 -0.847600 13.316000 7.500000 17.500000 # B WAT
353 353 1 -0.847600 13.316000 10.000000 0.000000 # A WAT
354 354 2 -0.847600 13.316000 10.000000 2.500000 # B WAT
355 355 1 -0.847600 13.316000 10.000000 5.000000 # A WAT
356 356 2 -0.847600 13.316000 10.000000 7.500000 # B WAT
357 357 1 -0.847600 13.316000 10.000000 10.000000 # A WAT
358 358 2 -0.847600 13.316000 10.000000 12.500000 # B WAT
359 359 1 -0.847600 13.316000 10.000000 15.000000 # A WAT
360 360 2 -0.847600 13.316000 10.000000 17.500000 # B WAT
361 361 1 -0.847600 13.316000 12.500000 0.000000 # A WAT
362 362 2 -0.847600 13.316000 12.500000 2.500000 # B WAT
363 363 1 -0.847600 13.316000 12.500000 5.000000 # A WAT
364 364 2 -0.847600 13.316000 12.500000 7.500000 # B WAT
365 365 1 -0.847600 13.316000 12.500000 10.000000 # A WAT
366 366 2 -0.847600 13.316000 12.500000 12.500000 # B WAT
367 367 1 -0.847600 13.316000 12.500000 15.000000 # A WAT
368 368 2 -0.847600 13.316000 12.500000 17.500000 # B WAT
369 369 1 -0.847600 13.316000 15.000000 0.000000 # A WAT
370 370 2 -0.847600 13.316000 15.000000 2.500000 # B WAT
371 371 1 -0.847600 13.316000 15.000000 5.000000 # A WAT
372 372 2 -0.847600 13.316000 15.000000 7.500000 # B WAT
373 373 1 -0.847600 13.316000 15.000000 10.000000 # A WAT
374 374 2 -0.847600 13.316000 15.000000 12.500000 # B WAT
375 375 1 -0.847600 13.316000 15.000000 15.000000 # A WAT
376 376 2 -0.847600 13.316000 15.000000 17.500000 # B WAT
377 377 1 -0.847600 13.316000 17.500000 0.000000 # A WAT
378 378 2 -0.847600 13.316000 17.500000 2.500000 # B WAT
379 379 1 -0.847600 13.316000 17.500000 5.000000 # A WAT
380 380 2 -0.847600 13.316000 17.500000 7.500000 # B WAT
381 381 1 -0.847600 13.316000 17.500000 10.000000 # A WAT
382 382 2 -0.847600 13.316000 17.500000 12.500000 # B WAT
383 383 1 -0.847600 13.316000 17.500000 15.000000 # A WAT
384 384 2 -0.847600 13.316000 17.500000 17.500000 # B WAT
385 385 1 -0.847600 15.816000 0.000000 0.000000 # A WAT
386 386 2 -0.847600 15.816000 0.000000 2.500000 # B WAT
387 387 1 -0.847600 15.816000 0.000000 5.000000 # A WAT
388 388 2 -0.847600 15.816000 0.000000 7.500000 # B WAT
389 389 1 -0.847600 15.816000 0.000000 10.000000 # A WAT
390 390 2 -0.847600 15.816000 0.000000 12.500000 # B WAT
391 391 1 -0.847600 15.816000 0.000000 15.000000 # A WAT
392 392 2 -0.847600 15.816000 0.000000 17.500000 # B WAT
393 393 1 -0.847600 15.816000 2.500000 0.000000 # A WAT
394 394 2 -0.847600 15.816000 2.500000 2.500000 # B WAT
395 395 1 -0.847600 15.816000 2.500000 5.000000 # A WAT
396 396 2 -0.847600 15.816000 2.500000 7.500000 # B WAT
397 397 1 -0.847600 15.816000 2.500000 10.000000 # A WAT
398 398 2 -0.847600 15.816000 2.500000 12.500000 # B WAT
399 399 1 -0.847600 15.816000 2.500000 15.000000 # A WAT
400 400 2 -0.847600 15.816000 2.500000 17.500000 # B WAT
401 401 1 -0.847600 15.816000 5.000000 0.000000 # A WAT
402 402 2 -0.847600 15.816000 5.000000 2.500000 # B WAT
403 403 1 -0.847600 15.816000 5.000000 5.000000 # A WAT
404 404 2 -0.847600 15.816000 5.000000 7.500000 # B WAT
405 405 1 -0.847600 15.816000 5.000000 10.000000 # A WAT
406 406 2 -0.847600 15.816000 5.000000 12.500000 # B WAT
407 407 1 -0.847600 15.816000 5.000000 15.000000 # A WAT
408 408 2 -0.847600 15.816000 5.000000 17.500000 # B WAT
409 409 1 -0.847600 15.816000 7.500000 0.000000 # A WAT
410 410 2 -0.847600 15.816000 7.500000 2.500000 # B WAT
411 411 1 -0.847600 15.816000 7.500000 5.000000 # A WAT
412 412 2 -0.847600 15.816000 7.500000 7.500000 # B WAT
413 413 1 -0.847600 15.816000 7.500000 10.000000 # A WAT
414 414 2 -0.847600 15.816000 7.500000 12.500000 # B WAT
415 415 1 -0.847600 15.816000 7.500000 15.000000 # A WAT
416 416 2 -0.847600 15.816000 7.500000 17.500000 # B WAT
417 417 1 -0.847600 15.816000 10.000000 0.000000 # A WAT
418 418 2 -0.847600 15.816000 10.000000 2.500000 # B WAT
419 419 1 -0.847600 15.816000 10.000000 5.000000 # A WAT
420 420 2 -0.847600 15.816000 10.000000 7.500000 # B WAT
421 421 1 -0.847600 15.816000 10.000000 10.000000 # A WAT
422 422 2 -0.847600 15.816000 10.000000 12.500000 # B WAT
423 423 1 -0.847600 15.816000 10.000000 15.000000 # A WAT
424 424 2 -0.847600 15.816000 10.000000 17.500000 # B WAT
425 425 1 -0.847600 15.816000 12.500000 0.000000 # A WAT
426 426 2 -0.847600 15.816000 12.500000 2.500000 # B WAT
427 427 1 -0.847600 15.816000 12.500000 5.000000 # A WAT
428 428 2 -0.847600 15.816000 12.500000 7.500000 # B WAT
429 429 1 -0.847600 15.816000 12.500000 10.000000 # A WAT
430 430 2 -0.847600 15.816000 12.500000 12.500000 # B WAT
431 431 1 -0.847600 15.816000 12.500000 15.000000 # A WAT
432 432 2 -0.847600 15.816000 12.500000 17.500000 # B WAT
433 433 1 -0.847600 15.816000 15.000000 0.000000 # A WAT
434 434 2 -0.847600 15.816000 15.000000 2.500000 # B WAT
435 435 1 -0.847600 15.816000 15.000000 5.000000 # A WAT
436 436 2 -0.847600 15.816000 15.000000 7.500000 # B WAT
437 437 1 -0.847600 15.816000 15.000000 10.000000 # A WAT
438 438 2 -0.847600 15.816000 15.000000 12.500000 # B WAT
439 439 1 -0.847600 15.816000 15.000000 15.000000 # A WAT
440 440 2 -0.847600 15.816000 15.000000 17.500000 # B WAT
441 441 1 -0.847600 15.816000 17.500000 0.000000 # A WAT
442 442 2 -0.847600 15.816000 17.500000 2.500000 # B WAT
443 443 1 -0.847600 15.816000 17.500000 5.000000 # A WAT
444 444 2 -0.847600 15.816000 17.500000 7.500000 # B WAT
445 445 1 -0.847600 15.816000 17.500000 10.000000 # A WAT
446 446 2 -0.847600 15.816000 17.500000 12.500000 # B WAT
447 447 1 -0.847600 15.816000 17.500000 15.000000 # A WAT
448 448 2 -0.847600 15.816000 17.500000 17.500000 # B WAT
449 449 1 -0.847600 18.316000 0.000000 0.000000 # A WAT
450 450 2 -0.847600 18.316000 0.000000 2.500000 # B WAT
451 451 1 -0.847600 18.316000 0.000000 5.000000 # A WAT
452 452 2 -0.847600 18.316000 0.000000 7.500000 # B WAT
453 453 1 -0.847600 18.316000 0.000000 10.000000 # A WAT
454 454 2 -0.847600 18.316000 0.000000 12.500000 # B WAT
455 455 1 -0.847600 18.316000 0.000000 15.000000 # A WAT
456 456 2 -0.847600 18.316000 0.000000 17.500000 # B WAT
457 457 1 -0.847600 18.316000 2.500000 0.000000 # A WAT
458 458 2 -0.847600 18.316000 2.500000 2.500000 # B WAT
459 459 1 -0.847600 18.316000 2.500000 5.000000 # A WAT
460 460 2 -0.847600 18.316000 2.500000 7.500000 # B WAT
461 461 1 -0.847600 18.316000 2.500000 10.000000 # A WAT
462 462 2 -0.847600 18.316000 2.500000 12.500000 # B WAT
463 463 1 -0.847600 18.316000 2.500000 15.000000 # A WAT
464 464 2 -0.847600 18.316000 2.500000 17.500000 # B WAT
465 465 1 -0.847600 18.316000 5.000000 0.000000 # A WAT
466 466 2 -0.847600 18.316000 5.000000 2.500000 # B WAT
467 467 1 -0.847600 18.316000 5.000000 5.000000 # A WAT
468 468 2 -0.847600 18.316000 5.000000 7.500000 # B WAT
469 469 1 -0.847600 18.316000 5.000000 10.000000 # A WAT
470 470 2 -0.847600 18.316000 5.000000 12.500000 # B WAT
471 471 1 -0.847600 18.316000 5.000000 15.000000 # A WAT
472 472 2 -0.847600 18.316000 5.000000 17.500000 # B WAT
473 473 1 -0.847600 18.316000 7.500000 0.000000 # A WAT
474 474 2 -0.847600 18.316000 7.500000 2.500000 # B WAT
475 475 1 -0.847600 18.316000 7.500000 5.000000 # A WAT
476 476 2 -0.847600 18.316000 7.500000 7.500000 # B WAT
477 477 1 -0.847600 18.316000 7.500000 10.000000 # A WAT
478 478 2 -0.847600 18.316000 7.500000 12.500000 # B WAT
479 479 1 -0.847600 18.316000 7.500000 15.000000 # A WAT
480 480 2 -0.847600 18.316000 7.500000 17.500000 # B WAT
481 481 1 -0.847600 18.316000 10.000000 0.000000 # A WAT
482 482 2 -0.847600 18.316000 10.000000 2.500000 # B WAT
483 483 1 -0.847600 18.316000 10.000000 5.000000 # A WAT
484 484 2 -0.847600 18.316000 10.000000 7.500000 # B WAT
485 485 1 -0.847600 18.316000 10.000000 10.000000 # A WAT
486 486 2 -0.847600 18.316000 10.000000 12.500000 # B WAT
487 487 1 -0.847600 18.316000 10.000000 15.000000 # A WAT
488 488 2 -0.847600 18.316000 10.000000 17.500000 # B WAT
489 489 1 -0.847600 18.316000 12.500000 0.000000 # A WAT
490 490 2 -0.847600 18.316000 12.500000 2.500000 # B WAT
491 491 1 -0.847600 18.316000 12.500000 5.000000 # A WAT
492 492 2 -0.847600 18.316000 12.500000 7.500000 # B WAT
493 493 1 -0.847600 18.316000 12.500000 10.000000 # A WAT
494 494 2 -0.847600 18.316000 12.500000 12.500000 # B WAT
495 495 1 -0.847600 18.316000 12.500000 15.000000 # A WAT
496 496 2 -0.847600 18.316000 12.500000 17.500000 # B WAT
497 497 1 -0.847600 18.316000 15.000000 0.000000 # A WAT
498 498 2 -0.847600 18.316000 15.000000 2.500000 # B WAT
499 499 1 -0.847600 18.316000 15.000000 5.000000 # A WAT
500 500 2 -0.847600 18.316000 15.000000 7.500000 # B WAT
501 501 1 -0.847600 18.316000 15.000000 10.000000 # A WAT
502 502 2 -0.847600 18.316000 15.000000 12.500000 # B WAT
503 503 1 -0.847600 18.316000 15.000000 15.000000 # A WAT
504 504 2 -0.847600 18.316000 15.000000 17.500000 # B WAT
505 505 1 -0.847600 18.316000 17.500000 0.000000 # A WAT
506 506 2 -0.847600 18.316000 17.500000 2.500000 # B WAT
507 507 1 -0.847600 18.316000 17.500000 5.000000 # A WAT
508 508 2 -0.847600 18.316000 17.500000 7.500000 # B WAT
509 509 1 -0.847600 18.316000 17.500000 10.000000 # A WAT
510 510 2 -0.847600 18.316000 17.500000 12.500000 # B WAT
511 511 1 -0.847600 18.316000 17.500000 15.000000 # A WAT
512 512 2 -0.847600 18.316000 17.500000 17.500000 # B WAT

