Created by charmm2lammps v1.8.1 on Fri Apr 10 22:21:16 AEST 2015

          24  atoms
          24  bonds
          42  angles
          95  dihedrals
           0  impropers

           9  atom types
          14  bond types
          30  angle types
          74  dihedral types
           0  improper types

       1.139        6.532 xlo xhi
      -2.177        4.212 ylo yhi
     -10.403       -6.141 zlo zhi

Masses

       1     12.011  # CC3161
       2     12.011  # CC3162
       3     12.011  # CC3163
       4     12.011  # CC321
       5      1.008  # HCA1
       6      1.008  # HCA2
       7      1.008  # HCP1
       8    15.9994  # OC311
       9    15.9994  # OC3C61

Pair Coeffs

       1      0.032   3.563595       0.01   3.385415  # CC3161
       2      0.032   3.563595       0.01   3.385415  # CC3162
       3      0.032   3.563595       0.01   3.385415  # CC3163
       4      0.056   3.581413       0.01   3.385415  # CC321
       5      0.045   2.387609      0.045   2.387609  # HCA1
       6      0.035   2.387609      0.035   2.387609  # HCA2
       7      0.046  0.4000135      0.046  0.4000135  # HCP1
       8     0.1921   3.144872     0.1921   3.144872  # OC311
       9        0.1   2.939966        0.1   2.939966  # OC3C61

Atoms

       1       1     2      0.34       5.227       0.338      -8.248  # CC3162
       2       1     5      0.09       5.227      -0.208      -9.207  # HCA1
       3       1     8     -0.65       6.532       0.436      -7.779  # OC311
       4       1     7      0.42       6.507       0.931      -6.937  # HCP1
       5       1     3      0.11       3.337       1.774      -8.944  # CC3163
       6       1     5      0.09       3.271       1.274      -9.929  # HCA1
       7       1     9      -0.4       4.663       1.697      -8.422  # OC3C61
       8       1     1      0.14       4.345      -0.412      -7.222  # CC3161
       9       1     5      0.09       4.452       0.078      -6.233  # HCA1
      10       1     8     -0.65       4.776      -1.748      -7.109  # OC311
      11       1     7      0.42       4.208      -2.177      -6.442  # HCP1
      12       1     1      0.14       2.854      -0.372      -7.633  # CC3161
      13       1     5      0.09       2.727      -0.987      -8.546  # HCA1
      14       1     8     -0.65       2.063      -0.925      -6.611  # OC311
      15       1     7      0.42       1.139      -0.907      -6.925  # HCP1
      16       1     1      0.14       2.367       1.065       -7.95  # CC3161
      17       1     5      0.09        1.34       1.021      -8.364  # HCA1
      18       1     8     -0.65       2.336       1.802       -6.75  # OC311
      19       1     7      0.42       1.737       1.334      -6.141  # HCP1
      20       1     4      0.05       3.018       3.281       -9.16  # CC321
      21       1     6      0.09       3.805       3.735      -9.772  # HCA2
      22       1     6      0.09       3.014       3.809      -8.202  # HCA2
      23       1     8     -0.65       1.778       3.456      -9.811  # OC311
      24       1     7      0.42       1.862       4.212     -10.403  # HCP1

Bond Coeffs

       1      222.5       1.48  # CC3161   CC3161  
       2      222.5       1.48  # CC3161   CC3162  
       3      222.5        1.5  # CC3161   CC3163  
       4        309      1.111  # CC3161   HCA1
       5        410       1.41  # CC3161   OC311   
       6        309      1.111  # CC3162   HCA1
       7        428        1.4  # CC3162   OC311   
       8        360      1.425  # CC3162   OC3C61  
       9      222.5       1.49  # CC3163   CC321   
      10        309      1.111  # CC3163   HCA1
      11        360      1.425  # CC3163   OC3C61  
      12        309      1.111  # CC321    HCA2
      13        428       1.42  # CC321    OC311   
      14        545       0.96  # HCP1 OC311   

Bonds

       1       7       1       3  # CC3162   OC311   
       2       6       1       2  # CC3162   HCA1
       3       8       1       7  # CC3162   OC3C61  
       4       2       1       8  # CC3161   CC3162  
       5      14       3       4  # HCP1 OC311   
       6      10       5       6  # CC3163   HCA1
       7       9       5      20  # CC3163   CC321   
       8      11       5       7  # CC3163   OC3C61  
       9       4       8       9  # CC3161   HCA1
      10       5       8      10  # CC3161   OC311   
      11       1       8      12  # CC3161   CC3161  
      12      14      10      11  # HCP1 OC311   
      13       4      12      13  # CC3161   HCA1
      14       5      12      14  # CC3161   OC311   
      15       1      12      16  # CC3161   CC3161  
      16      14      14      15  # HCP1 OC311   
      17       4      16      17  # CC3161   HCA1
      18       5      16      18  # CC3161   OC311   
      19       3      16       5  # CC3161   CC3163  
      20      14      18      19  # HCP1 OC311   
      21      12      20      21  # CC321    HCA2
      22      12      20      22  # CC321    HCA2
      23      13      20      23  # CC321    OC311   
      24      14      23      24  # HCP1 OC311   

Angle Coeffs

       1      53.35        111          8      2.561  # CC3161   CC3161   CC3161  
       2      53.35        111          8      2.561  # CC3161   CC3161   CC3162  
       3      53.35        111          8      2.561  # CC3161   CC3161   CC3163  
       4       34.5      110.1      22.53      2.179  # CC3161   CC3161   HCA1
       5       75.7      110.1          0          0  # CC3161   CC3161   OC311   
       6       34.5      110.1      22.53      2.179  # CC3161   CC3162   HCA1
       7       75.7        107          0          0  # CC3161   CC3162   OC311   
       8         45        106          0          0  # CC3161   CC3162   OC3C61  
       9      58.35      113.5      11.16      2.561  # CC3161   CC3163   CC321   
      10       34.5      110.1      22.53      2.179  # CC3161   CC3163   HCA1
      11         45        110          0          0  # CC3161   CC3163   OC3C61  
      12         50        109          0          0  # CC3161   OC311    HCP1
      13       34.5      110.1      22.53      2.179  # CC3162   CC3161   HCA1
      14       75.7      110.1          0          0  # CC3162   CC3161   OC311   
      15         50        109          0          0  # CC3162   OC311    HCP1
      16         95      109.7          0          0  # CC3162   OC3C61   CC3163  
      17       34.5      110.1      22.53      2.179  # CC3163   CC3161   HCA1
      18       75.7      110.1          0          0  # CC3163   CC3161   OC311   
      19      33.43      110.1      22.53      2.179  # CC3163   CC321    HCA2
      20       75.7      110.1          0          0  # CC3163   CC321    OC311   
      21       34.5      110.1      22.53      2.179  # CC321    CC3163   HCA1
      22         45        109          0          0  # CC321    CC3163   OC3C61  
      23         50        109          0          0  # CC321    OC311    HCP1
      24         55     108.89          0          0  # HCA1 CC3161   OC311   
      25         55     108.89          0          0  # HCA1 CC3162   OC311   
      26         45      109.5          0          0  # HCA1 CC3162   OC3C61  
      27         45      109.5          0          0  # HCA1 CC3163   OC3C61  
      28       35.5        109        5.4      1.802  # HCA2 CC321    HCA2
      29         55     108.89          0          0  # HCA2 CC321    OC311   
      30         45      116.5          0          0  # OC311    CC3162   OC3C61  

Angles

       1       2       1       8      12  # CC3161   CC3161   CC3162  
       2      14       1       8      10  # CC3162   CC3161   OC311   
       3      13       1       8       9  # CC3162   CC3161   HCA1
       4      16       1       7       5  # CC3162   OC3C61   CC3163  
       5      15       1       3       4  # CC3162   OC311    HCP1
       6       6       2       1       8  # CC3161   CC3162   HCA1
       7      26       2       1       7  # HCA1 CC3162   OC3C61  
       8       7       3       1       8  # CC3161   CC3162   OC311   
       9      30       3       1       7  # OC311    CC3162   OC3C61  
      10      25       3       1       2  # HCA1 CC3162   OC311   
      11      20       5      20      23  # CC3163   CC321    OC311   
      12      19       5      20      22  # CC3163   CC321    HCA2
      13      19       5      20      21  # CC3163   CC321    HCA2
      14      27       6       5       7  # HCA1 CC3163   OC3C61  
      15      21       6       5      20  # CC321    CC3163   HCA1
      16       8       7       1       8  # CC3161   CC3162   OC3C61  
      17       1       8      12      16  # CC3161   CC3161   CC3161  
      18       5       8      12      14  # CC3161   CC3161   OC311   
      19       4       8      12      13  # CC3161   CC3161   HCA1
      20      12       8      10      11  # CC3161   OC311    HCP1
      21       4       9       8      12  # CC3161   CC3161   HCA1
      22      24       9       8      10  # HCA1 CC3161   OC311   
      23       5      10       8      12  # CC3161   CC3161   OC311   
      24       3      12      16       5  # CC3161   CC3161   CC3163  
      25       5      12      16      18  # CC3161   CC3161   OC311   
      26       4      12      16      17  # CC3161   CC3161   HCA1
      27      12      12      14      15  # CC3161   OC311    HCP1
      28       4      13      12      16  # CC3161   CC3161   HCA1
      29      24      13      12      14  # HCA1 CC3161   OC311   
      30       5      14      12      16  # CC3161   CC3161   OC311   
      31      12      16      18      19  # CC3161   OC311    HCP1
      32      11      16       5       7  # CC3161   CC3163   OC3C61  
      33       9      16       5      20  # CC3161   CC3163   CC321   
      34      10      16       5       6  # CC3161   CC3163   HCA1
      35      17      17      16       5  # CC3163   CC3161   HCA1
      36      24      17      16      18  # HCA1 CC3161   OC311   
      37      18      18      16       5  # CC3163   CC3161   OC311   
      38      23      20      23      24  # CC321    OC311    HCP1
      39      22      20       5       7  # CC321    CC3163   OC3C61  
      40      29      21      20      23  # HCA2 CC321    OC311   
      41      28      21      20      22  # HCA2 CC321    HCA2
      42      29      22      20      23  # HCA2 CC321    OC311   

Dihedral Coeffs

       1       0.19          3        180        0.5  # CC3161   CC3161   CC3161   CC3162  
       2       0.19          3        180        0.5  # CC3161   CC3161   CC3161   CC3163  
       3        0.2          3          0          1  # CC3161   CC3161   CC3161   HCA1
       4        0.2          3          0          1  # CC3161   CC3161   CC3161   OC311   
       5        0.2          3          0          1  # CC3161   CC3161   CC3162   HCA1
       6        0.2          3          0          1  # CC3161   CC3161   CC3162   OC311   
       7       0.31          3        180        0.5  # CC3161   CC3161   CC3162   OC3C61  
       8        0.2          3          0          1  # CC3161   CC3161   CC3163   CC321   
       9        0.2          3          0          1  # CC3161   CC3161   CC3163   HCA1
      10       0.31          3        180        0.5  # CC3161   CC3161   CC3163   OC3C61  
      11       0.29          1          0          1  # CC3161   CC3161   OC311    HCP1
      12       0.62          2          0          0  # CC3161   CC3161   OC311    HCP1
      13       0.05          3          0          0  # CC3161   CC3161   OC311    HCP1
      14       0.29          1          0          1  # CC3161   CC3162   OC311    HCP1
      15       0.62          2          0          0  # CC3161   CC3162   OC311    HCP1
      16       0.05          3          0          0  # CC3161   CC3162   OC311    HCP1
      17        0.2          3          0        0.5  # CC3161   CC3162   OC3C61   CC3163  
      18        0.2          3          0          1  # CC3161   CC3163   CC321    HCA2
      19        0.2          3          0          1  # CC3161   CC3163   CC321    OC311   
      20        0.2          3          0        0.5  # CC3161   CC3163   OC3C61   CC3162  
      21        0.2          3          0          1  # CC3162   CC3161   CC3161   HCA1
      22        0.2          3          0          1  # CC3162   CC3161   CC3161   OC311   
      23       0.29          1          0          1  # CC3162   CC3161   OC311    HCP1
      24       0.62          2          0          0  # CC3162   CC3161   OC311    HCP1
      25       0.05          3          0          0  # CC3162   CC3161   OC311    HCP1
      26        0.2          3          0          1  # CC3162   OC3C61   CC3163   CC321   
      27      0.284          3          0          1  # CC3162   OC3C61   CC3163   HCA1
      28        0.2          3          0          1  # CC3163   CC3161   CC3161   HCA1
      29        0.2          3          0          1  # CC3163   CC3161   CC3161   OC311   
      30       0.29          1          0          1  # CC3163   CC3161   OC311    HCP1
      31       0.62          2          0          0  # CC3163   CC3161   OC311    HCP1
      32       0.05          3          0          0  # CC3163   CC3161   OC311    HCP1
      33       0.29          1          0          1  # CC3163   CC321    OC311    HCP1
      34       0.62          2          0          0  # CC3163   CC321    OC311    HCP1
      35       0.05          3          0          0  # CC3163   CC321    OC311    HCP1
      36      0.284          3          0          1  # CC3163   OC3C61   CC3162   HCA1
      37       0.41          1        180          1  # CC3163   OC3C61   CC3162   OC311   
      38       0.89          2          0          0  # CC3163   OC3C61   CC3162   OC311   
      39       0.05          3          0          0  # CC3163   OC3C61   CC3162   OC311   
      40        0.2          3          0          1  # CC321    CC3163   CC3161   HCA1
      41        0.2          3          0          1  # CC321    CC3163   CC3161   OC311   
      42        0.2          3          0          1  # HCA1 CC3161   CC3161   HCA1
      43       0.14          3          0          1  # HCA1 CC3161   CC3161   OC311   
      44        0.2          3          0          1  # HCA1 CC3161   CC3162   HCA1
      45       0.14          3          0          1  # HCA1 CC3161   CC3162   OC311   
      46        0.2          3          0          1  # HCA1 CC3161   CC3162   OC3C61  
      47        0.2          3          0          1  # HCA1 CC3161   CC3163   HCA1
      48        0.2          3          0          1  # HCA1 CC3161   CC3163   OC3C61  
      49       0.18          3          0          1  # HCA1 CC3161   OC311    HCP1
      50       0.14          3          0          1  # HCA1 CC3162   CC3161   OC311   
      51       0.18          3          0          1  # HCA1 CC3162   OC311    HCP1
      52       0.14          3          0          1  # HCA1 CC3163   CC3161   OC311   
      53        0.2          3          0          1  # HCA1 CC3163   CC321    HCA2
      54       0.14          3          0          1  # HCA1 CC3163   CC321    OC311   
      55        0.2          3          0          1  # HCA2 CC321    CC3163   OC3C61  
      56       0.18          3          0          1  # HCA2 CC321    OC311    HCP1
      57       1.55          1          0          1  # HCP1 OC311    CC3162   OC3C61  
      58       1.17          2          0          0  # HCP1 OC311    CC3162   OC3C61  
      59       1.07          3          0          0  # HCP1 OC311    CC3162   OC3C61  
      60       2.65          1        180          1  # OC311    CC3161   CC3161   OC311   
      61          0          2          0          0  # OC311    CC3161   CC3161   OC311   
      62       0.13          3        180          0  # OC311    CC3161   CC3161   OC311   
      63       2.65          1        180          1  # OC311    CC3161   CC3162   OC311   
      64          0          2          0          0  # OC311    CC3161   CC3162   OC311   
      65       0.13          3        180          0  # OC311    CC3161   CC3162   OC311   
      66       2.75          1        180          1  # OC311    CC3161   CC3162   OC3C61  
      67       0.26          2        180          0  # OC311    CC3161   CC3162   OC3C61  
      68        0.1          3          0          0  # OC311    CC3161   CC3162   OC3C61  
      69       1.36          1        180          1  # OC311    CC3161   CC3163   OC3C61  
      70       0.16          2          0          0  # OC311    CC3161   CC3163   OC3C61  
      71       1.01          3          0          0  # OC311    CC3161   CC3163   OC3C61  
      72       0.75          1        180          1  # OC311    CC321    CC3163   OC3C61  
      73       0.17          2          0          0  # OC311    CC321    CC3163   OC3C61  
      74       0.25          3        180          0  # OC311    CC321    CC3163   OC3C61  

Dihedrals

       1      23       1       8      10      11  # CC3162   CC3161   OC311    HCP1
       2      24       1       8      10      11  # CC3162   CC3161   OC311    HCP1
       3      25       1       8      10      11  # CC3162   CC3161   OC311    HCP1
       4      21       1       8      12      13  # CC3162   CC3161   CC3161   HCA1
       5      22       1       8      12      14  # CC3162   CC3161   CC3161   OC311   
       6       1       1       8      12      16  # CC3161   CC3161   CC3161   CC3162  
       7      20       1       7       5      16  # CC3161   CC3163   OC3C61   CC3162  
       8      27       1       7       5       6  # CC3162   OC3C61   CC3163   HCA1
       9      26       1       7       5      20  # CC3162   OC3C61   CC3163   CC321   
      10      51       2       1       3       4  # HCA1 CC3162   OC311    HCP1
      11      36       2       1       7       5  # CC3163   OC3C61   CC3162   HCA1
      12      44       2       1       8       9  # HCA1 CC3161   CC3162   HCA1
      13      50       2       1       8      10  # HCA1 CC3162   CC3161   OC311   
      14       5       2       1       8      12  # CC3161   CC3161   CC3162   HCA1
      15      37       3       1       7       5  # CC3163   OC3C61   CC3162   OC311   
      16      38       3       1       7       5  # CC3163   OC3C61   CC3162   OC311   
      17      39       3       1       7       5  # CC3163   OC3C61   CC3162   OC311   
      18      45       3       1       8       9  # HCA1 CC3161   CC3162   OC311   
      19      63       3       1       8      10  # OC311    CC3161   CC3162   OC311   
      20      65       3       1       8      10  # OC311    CC3161   CC3162   OC311   
      21       6       3       1       8      12  # CC3161   CC3161   CC3162   OC311   
      22      57       4       3       1       7  # HCP1 OC311    CC3162   OC3C61  
      23      58       4       3       1       7  # HCP1 OC311    CC3162   OC3C61  
      24      59       4       3       1       7  # HCP1 OC311    CC3162   OC3C61  
      25      14       4       3       1       8  # CC3161   CC3162   OC311    HCP1
      26      15       4       3       1       8  # CC3161   CC3162   OC311    HCP1
      27      16       4       3       1       8  # CC3161   CC3162   OC311    HCP1
      28      33       5      20      23      24  # CC3163   CC321    OC311    HCP1
      29      34       5      20      23      24  # CC3163   CC321    OC311    HCP1
      30      35       5      20      23      24  # CC3163   CC321    OC311    HCP1
      31       2       5      16      12       8  # CC3161   CC3161   CC3161   CC3163  
      32      28       5      16      12      13  # CC3163   CC3161   CC3161   HCA1
      33      29       5      16      12      14  # CC3163   CC3161   CC3161   OC311   
      34      30       5      16      18      19  # CC3163   CC3161   OC311    HCP1
      35      31       5      16      18      19  # CC3163   CC3161   OC311    HCP1
      36      32       5      16      18      19  # CC3163   CC3161   OC311    HCP1
      37      17       5       7       1       8  # CC3161   CC3162   OC3C61   CC3163  
      38       9       6       5      16      12  # CC3161   CC3161   CC3163   HCA1
      39      47       6       5      16      17  # HCA1 CC3161   CC3163   HCA1
      40      52       6       5      16      18  # HCA1 CC3163   CC3161   OC311   
      41      53       6       5      20      21  # HCA1 CC3163   CC321    HCA2
      42      53       6       5      20      22  # HCA1 CC3163   CC321    HCA2
      43      54       6       5      20      23  # HCA1 CC3163   CC321    OC311   
      44      10       7       5      16      12  # CC3161   CC3161   CC3163   OC3C61  
      45      48       7       5      16      17  # HCA1 CC3161   CC3163   OC3C61  
      46      69       7       5      16      18  # OC311    CC3161   CC3163   OC3C61  
      47      70       7       5      16      18  # OC311    CC3161   CC3163   OC3C61  
      48      71       7       5      16      18  # OC311    CC3161   CC3163   OC3C61  
      49      55       7       5      20      21  # HCA2 CC321    CC3163   OC3C61  
      50      55       7       5      20      22  # HCA2 CC321    CC3163   OC3C61  
      51      72       7       5      20      23  # OC311    CC321    CC3163   OC3C61  
      52      73       7       5      20      23  # OC311    CC321    CC3163   OC3C61  
      53      74       7       5      20      23  # OC311    CC321    CC3163   OC3C61  
      54      46       7       1       8       9  # HCA1 CC3161   CC3162   OC3C61  
      55      66       7       1       8      10  # OC311    CC3161   CC3162   OC3C61  
      56      67       7       1       8      10  # OC311    CC3161   CC3162   OC3C61  
      57      68       7       1       8      10  # OC311    CC3161   CC3162   OC3C61  
      58       7       7       1       8      12  # CC3161   CC3161   CC3162   OC3C61  
      59      11       8      12      14      15  # CC3161   CC3161   OC311    HCP1
      60      12       8      12      14      15  # CC3161   CC3161   OC311    HCP1
      61      13       8      12      14      15  # CC3161   CC3161   OC311    HCP1
      62       3       8      12      16      17  # CC3161   CC3161   CC3161   HCA1
      63       4       8      12      16      18  # CC3161   CC3161   CC3161   OC311   
      64      49       9       8      10      11  # HCA1 CC3161   OC311    HCP1
      65      42       9       8      12      13  # HCA1 CC3161   CC3161   HCA1
      66      43       9       8      12      14  # HCA1 CC3161   CC3161   OC311   
      67       3       9       8      12      16  # CC3161   CC3161   CC3161   HCA1
      68      43      10       8      12      13  # HCA1 CC3161   CC3161   OC311   
      69      60      10       8      12      14  # OC311    CC3161   CC3161   OC311   
      70      62      10       8      12      14  # OC311    CC3161   CC3161   OC311   
      71       4      10       8      12      16  # CC3161   CC3161   CC3161   OC311   
      72      11      11      10       8      12  # CC3161   CC3161   OC311    HCP1
      73      12      11      10       8      12  # CC3161   CC3161   OC311    HCP1
      74      13      11      10       8      12  # CC3161   CC3161   OC311    HCP1
      75      11      12      16      18      19  # CC3161   CC3161   OC311    HCP1
      76      12      12      16      18      19  # CC3161   CC3161   OC311    HCP1
      77      13      12      16      18      19  # CC3161   CC3161   OC311    HCP1
      78       8      12      16       5      20  # CC3161   CC3161   CC3163   CC321   
      79      49      13      12      14      15  # HCA1 CC3161   OC311    HCP1
      80      42      13      12      16      17  # HCA1 CC3161   CC3161   HCA1
      81      43      13      12      16      18  # HCA1 CC3161   CC3161   OC311   
      82      43      14      12      16      17  # HCA1 CC3161   CC3161   OC311   
      83      60      14      12      16      18  # OC311    CC3161   CC3161   OC311   
      84      62      14      12      16      18  # OC311    CC3161   CC3161   OC311   
      85      11      15      14      12      16  # CC3161   CC3161   OC311    HCP1
      86      12      15      14      12      16  # CC3161   CC3161   OC311    HCP1
      87      13      15      14      12      16  # CC3161   CC3161   OC311    HCP1
      88      18      16       5      20      21  # CC3161   CC3163   CC321    HCA2
      89      18      16       5      20      22  # CC3161   CC3163   CC321    HCA2
      90      19      16       5      20      23  # CC3161   CC3163   CC321    OC311   
      91      49      17      16      18      19  # HCA1 CC3161   OC311    HCP1
      92      40      17      16       5      20  # CC321    CC3163   CC3161   HCA1
      93      41      18      16       5      20  # CC321    CC3163   CC3161   OC311   
      94      56      21      20      23      24  # HCA2 CC321    OC311    HCP1
      95      56      22      20      23      24  # HCA2 CC321    OC311    HCP1

